 Q-Chem 5.1, Q-Chem, Inc., Pleasanton, CA (2018)
 Q-Chem 5.1.0 for Intel X86 EM64T Linux

User input:
--------------------------------------------------------------
$molecule
0 1
C  -1.6345982540  -0.2178484619   0.3043330711
C   0.6564446384  -0.2997591738  -0.6233773192
N  -0.3018668076  -0.6923084293   0.0135179635
O   2.5837668208   0.8215704074   0.7947203639
N   2.8374216197   0.6882511546  -0.3511951675
N   1.7091264608  -0.0169021372  -1.2412115106
H  -1.8293155638  -0.3404642187   1.3775159421
H  -1.7691956389   0.8375718620   0.0298967481
H  -2.3654062755  -0.8281680031  -0.2441870914
$end

$rem
JOBTYPE                   OPT
METHOD                    wB97X-D3
BASIS                     def2-TZVP
UNRESTRICTED              TRUE
SCF_ALGORITHM             DIIS
MAX_SCF_CYCLES            100
SCF_CONVERGENCE           8
SYM_IGNORE                TRUE
SYMMETRY                  FALSE
GEOM_OPT_MAX_CYCLES       100
GEOM_OPT_TOL_GRADIENT     100
GEOM_OPT_TOL_DISPLACEMENT 400
GEOM_OPT_TOL_ENERGY       33
WAVEFUNCTION_ANALYSIS     FALSE
$end

--------------------------------------------------------------

   16    -317.3776885414      5.49e-09  Convergence criterion met
 Total energy in the final basis set =     -317.3776885414
   14    -317.3826317223      5.32e-09  Convergence criterion met
 Total energy in the final basis set =     -317.3826317223
   15    -317.3836998562      5.32e-09  Convergence criterion met
 Total energy in the final basis set =     -317.3836998562
   15    -317.3847014448      4.52e-09  Convergence criterion met
 Total energy in the final basis set =     -317.3847014448
   15    -317.3848451220      4.12e-09  Convergence criterion met
 Total energy in the final basis set =     -317.3848451220
   14    -317.3853202729      6.27e-09  Convergence criterion met
 Total energy in the final basis set =     -317.3853202729
   15    -317.3854167018      3.95e-09  Convergence criterion met
 Total energy in the final basis set =     -317.3854167018
   14    -317.3855117705      8.73e-09  Convergence criterion met
   13    -317.3856374284      7.75e-09  Convergence criterion met
 Total energy in the final basis set =     -317.3856374284
   13    -317.3856642044      8.27e-09  Convergence criterion met
 Total energy in the final basis set =     -317.3856642044
   14    -317.3856921561      7.72e-09  Convergence criterion met
 Total energy in the final basis set =     -317.3856921561
   12    -317.3856928489      7.01e-09  Convergence criterion met
 Total energy in the final basis set =     -317.3856928489
   11    -317.3856932454      5.24e-09  Convergence criterion met
 Total energy in the final basis set =     -317.3856932454
   10    -317.3856935116      9.23e-09  Convergence criterion met
 Total energy in the final basis set =     -317.3856935116
 Final energy is   -317.385693511638
 **  OPTIMIZATION CONVERGED  **
 Total job time:  497.12s(wall), 7223.56s(cpu)
        *  Thank you very much for using Q-Chem.  Have a nice day.  *
 Q-Chem 5.1, Q-Chem, Inc., Pleasanton, CA (2018)
 Q-Chem 5.1.0 for Intel X86 EM64T Linux

User input:
--------------------------------------------------------------

$molecule
read
$end

$rem
JOBTYPE                   FREQ
METHOD                    wB97X-D3
BASIS                     def2-TZVP
UNRESTRICTED              TRUE
SCF_GUESS                 READ
SCF_ALGORITHM             DIIS
MAX_SCF_CYCLES            100
SCF_CONVERGENCE           8
SYM_IGNORE                TRUE
SYMMETRY                  FALSE
WAVEFUNCTION_ANALYSIS     FALSE
$end
--------------------------------------------------------------

             Standard Nuclear Orientation (Angstroms)
    I     Atom           X                Y                Z
 ----------------------------------------------------------------
    1      C      -1.6538802834    -0.2176745751     0.3024749831
    2      C       0.6932700204    -0.2389816246    -0.5578387715
    3      N      -0.3180289287    -0.5755018530    -0.0605279291
    4      O       2.5540742494     0.8606706920     0.7204908779
    5      N       2.8252168696     0.5583090490    -0.3963536362
    6      N       1.7820823366    -0.0210260862    -1.1469723902
    7      H      -1.7917472776    -0.3954470264     1.3676788028
    8      H      -1.8536814634     0.8301780898     0.0783640170
    9      H      -2.3509285232    -0.8485836656    -0.2473029538
 ----------------------------------------------------------------

    2    -317.3856935071      3.36e-09  Convergence criterion met
 Total energy in the final basis set =     -317.3856935071
 Frequency:        76.03                  99.91                 112.15
 Force Cnst:      0.0128                 0.0068                 0.0322
 Red. Mass:       3.7711                 1.1640                 4.3505
 IR Intens:        9.455                  5.062                 21.502
 Frequency:       156.46                 230.43                 487.22
 Force Cnst:      0.1412                 0.2095                 1.7241
 Red. Mass:       9.7897                 6.6958                12.3273
 IR Intens:       22.554                  7.422                 55.827
 Frequency:       628.54                 792.06                 842.11
 Force Cnst:      2.6714                 2.7876                 5.4750
 Red. Mass:      11.4767                 7.5416                13.1037
 IR Intens:       35.516                 89.683                 78.968
 Frequency:       969.96                1146.85                1158.30
 Force Cnst:      5.0831                 1.0073                 1.0277
 Red. Mass:       9.1699                 1.2999                 1.3000
 IR Intens:      455.327                 16.342                  4.111
 Frequency:      1385.34                1465.05                1500.61
 Force Cnst:      9.3231                 1.4739                 1.3787
 Red. Mass:       8.2452                 1.1655                 1.0392
 IR Intens:      239.987                 19.211                 11.789
 Frequency:      1509.36                1663.85                2316.78
 Force Cnst:      1.4342                23.3339                38.3126
 Red. Mass:       1.0685                14.3057                12.1149
 IR Intens:       11.607                187.701               1208.333
 Frequency:      3078.12                3162.53                3168.46
 Force Cnst:      5.7602                 6.5197                 6.5364
 Red. Mass:       1.0318                 1.1064                 1.1051
 IR Intens:       27.755                  6.041                  4.478

 STANDARD THERMODYNAMIC QUANTITIES AT   298.15 K  AND     1.00 ATM

   This Molecule has  0 Imaginary Frequencies
   Zero point vibrational energy:       37.098 kcal/mol

   Atom    1 Element C  Has Mass   12.00000
   Atom    2 Element C  Has Mass   12.00000
   Atom    3 Element N  Has Mass   14.00307
   Atom    4 Element O  Has Mass   15.99491
   Atom    5 Element N  Has Mass   14.00307
   Atom    6 Element N  Has Mass   14.00307
   Atom    7 Element H  Has Mass    1.00783
   Atom    8 Element H  Has Mass    1.00783
   Atom    9 Element H  Has Mass    1.00783
   Molecular Mass:    85.027610 amu
   Principal axes and moments of inertia in amu*Bohr^2:
                             1           2           3
    Eigenvalues --      150.99488   891.07782  1015.26048
          X               0.96920    -0.04362    -0.24236
          Y               0.23960     0.39439     0.88716
          Z              -0.05689     0.91791    -0.39270
   Rotational Symmetry Number is   1
   The Molecule is an Asymmetric Top
   Translational Enthalpy:        0.889 kcal/mol
   Rotational Enthalpy:           0.889 kcal/mol
   Vibrational Enthalpy:         39.613 kcal/mol
   gas constant (RT):             0.592 kcal/mol
   Translational Entropy:        39.234  cal/mol.K
   Rotational Entropy:           26.415  cal/mol.K
   Vibrational Entropy:          16.897  cal/mol.K

   Total Enthalpy:               41.983 kcal/mol
   Total Entropy:                82.547  cal/mol.K

 Total job time:  961.44s(wall), 3293.60s(cpu)
        *  Thank you very much for using Q-Chem.  Have a nice day.  *
