 Q-Chem 5.1, Q-Chem, Inc., Pleasanton, CA (2018)
 Q-Chem 5.1.0 for Intel X86 EM64T Linux

User input:
--------------------------------------------------------------
$molecule
0 1
C  -1.4283721416  -0.0699302768   0.0876017259
C   0.3473488260  -0.0089856387   0.0184527490
N   0.0800389254  -0.9742779031   0.7408667455
O   2.7417193295  -0.3656464734   0.1802190412
N   2.4326503856   0.5836860426  -0.5049191596
N   1.0255521224   0.8700698097  -0.6549303062
H  -1.6001808996   0.9146466790   0.5291783520
H  -1.5944017202  -0.1188271356  -0.9923575170
H  -2.0221998276  -0.8319421038   0.5972923692
$end

$rem
JOBTYPE                   FREQ
METHOD                    wB97X-D3
BASIS                     def2-TZVP
UNRESTRICTED              TRUE
SCF_ALGORITHM             DIIS
MAX_SCF_CYCLES            100
SCF_CONVERGENCE           8
SYM_IGNORE                TRUE
SYMMETRY                  FALSE
WAVEFUNCTION_ANALYSIS     FALSE
$end

--------------------------------------------------------------

   15    -317.3030241391      4.81e-09  Convergence criterion met
 Total energy in the final basis set =     -317.3030241391
 Frequency:      -361.11                 154.26                 214.44
 Force Cnst:      0.5903                 0.0688                 0.1705
 Red. Mass:       7.6835                 4.9055                 6.2932
 IR Intens:       17.668                  3.081                  2.465
 Frequency:       254.23                 347.05                 429.04
 Force Cnst:      0.0411                 0.9975                 0.6043
 Red. Mass:       1.0792                14.0563                 5.5716
 IR Intens:        1.392                  1.062                  1.745
 Frequency:       568.45                 687.62                 708.30
 Force Cnst:      1.6836                 2.9501                 1.5049
 Red. Mass:       8.8432                10.5898                 5.0912
 IR Intens:       74.294                  9.643                289.794
 Frequency:       855.64                1001.41                1012.03
 Force Cnst:      2.9237                 0.7116                 1.1591
 Red. Mass:       6.7779                 1.2044                 1.9209
 IR Intens:      154.326                  2.761                 19.186
 Frequency:      1090.61                1327.82                1448.01
 Force Cnst:      3.5798                 1.1803                 1.3292
 Red. Mass:       5.1082                 1.1362                 1.0760
 IR Intens:      136.139                 17.646                 40.826
 Frequency:      1466.96                1506.43                1876.33
 Force Cnst:      1.3316                18.3147                24.7812
 Red. Mass:       1.0503                13.6978                11.9468
 IR Intens:       15.159                250.338                433.883
 Frequency:      3044.32                3154.67                3173.45
 Force Cnst:      5.5964                 6.4780                 6.6091
 Red. Mass:       1.0249                 1.1048                 1.1139
 IR Intens:        1.901                  8.490                  1.228
 Total job time:  1144.98s(wall), 4342.44s(cpu)
        *  Thank you very much for using Q-Chem.  Have a nice day.  *
 Q-Chem 5.1, Q-Chem, Inc., Pleasanton, CA (2018)
 Q-Chem 5.1.0 for Intel X86 EM64T Linux

User input:
--------------------------------------------------------------

$molecule
read
$end

$rem
JOBTYPE                   TS
METHOD                    wB97X-D3
BASIS                     def2-TZVP
UNRESTRICTED              TRUE
SCF_GUESS                 READ
GEOM_OPT_HESSIAN          READ
SCF_ALGORITHM             DIIS
MAX_SCF_CYCLES            100
SCF_CONVERGENCE           8
SYM_IGNORE                TRUE
SYMMETRY                  FALSE
GEOM_OPT_MAX_CYCLES       100
GEOM_OPT_TOL_GRADIENT     100
GEOM_OPT_TOL_DISPLACEMENT 400
GEOM_OPT_TOL_ENERGY       33
WAVEFUNCTION_ANALYSIS     FALSE
$end

--------------------------------------------------------------

    2    -317.3030241370      1.20e-09  Convergence criterion met
 Total energy in the final basis set =     -317.3030241370
   14    -317.3051322812      9.41e-09  Convergence criterion met
 Total energy in the final basis set =     -317.3051322812
   14    -317.3052272775      5.37e-09  Convergence criterion met
 Total energy in the final basis set =     -317.3052272775
   13    -317.3051803264      6.97e-09  Convergence criterion met
 Total energy in the final basis set =     -317.3051803264
   13    -317.3052415872      4.34e-09  Convergence criterion met
 Total energy in the final basis set =     -317.3052415872
   13    -317.3052363732      3.02e-09  Convergence criterion met
 Total energy in the final basis set =     -317.3052363732
   12    -317.3052460713      5.94e-09  Convergence criterion met
 Total energy in the final basis set =     -317.3052460713
   11    -317.3052493263      7.34e-09  Convergence criterion met
 Total energy in the final basis set =     -317.3052493263
   10    -317.3052495080      4.50e-09  Convergence criterion met
 Total energy in the final basis set =     -317.3052495080
 Final energy is   -317.305249507956
 **  OPTIMIZATION CONVERGED  **
        *  Thank you very much for using Q-Chem.  Have a nice day.  *
 Q-Chem 5.1, Q-Chem, Inc., Pleasanton, CA (2018)
 Q-Chem 5.1.0 for Intel X86 EM64T Linux

User input:
--------------------------------------------------------------

$molecule
read
$end

$rem
JOBTYPE                   FREQ
METHOD                    wB97X-D3
BASIS                     def2-TZVP
UNRESTRICTED              TRUE
SCF_GUESS                 READ
SCF_ALGORITHM             DIIS
MAX_SCF_CYCLES            100
SCF_CONVERGENCE           8
SYM_IGNORE                TRUE
SYMMETRY                  FALSE
WAVEFUNCTION_ANALYSIS     FALSE
$end
--------------------------------------------------------------

             Standard Nuclear Orientation (Angstroms)
    I     Atom           X                Y                Z
 ----------------------------------------------------------------
    1      C      -1.3683139298    -0.0492553953     0.0686806419
    2      C       0.3050054609    -0.0291313684     0.0133472789
    3      N       0.1262557703    -1.0072531878     0.7086427587
    4      O       2.6269387071    -0.3675442443     0.1935396652
    5      N       2.3414614741     0.5837819115    -0.4709261416
    6      N       0.9914282051     0.8648747359    -0.6356661966
    7      H      -1.5406935101     0.9349903276     0.4965509028
    8      H      -1.5802468473    -0.1284110138    -0.9944196205
    9      H      -1.9196803303    -0.8032587656     0.6216547112
 ----------------------------------------------------------------

    2    -317.3052495099      1.53e-09  Convergence criterion met
 Total energy in the final basis set =     -317.3052495099
 Frequency:      -441.48                 118.06                 181.61
 Force Cnst:      0.9357                 0.0283                 0.0232
 Red. Mass:       8.1478                 3.4517                 1.1929
 IR Intens:        3.803                  1.745                  2.032
 Frequency:       218.02                 302.34                 449.85
 Force Cnst:      0.1550                 0.6065                 0.6634
 Red. Mass:       5.5357                11.2617                 5.5640
 IR Intens:        1.435                  1.880                  3.004
 Frequency:       655.12                 667.96                 801.28
 Force Cnst:      1.4199                 2.3954                 1.5442
 Red. Mass:       5.6154                 9.1123                 4.0820
 IR Intens:       10.168                  8.095                 81.327
 Frequency:       922.91                 988.14                1034.23
 Force Cnst:      4.5642                 0.7209                 1.4398
 Red. Mass:       9.0948                 1.2531                 2.2846
 IR Intens:      280.148                  3.937                  2.645
 Frequency:      1115.02                1325.09                1441.85
 Force Cnst:      3.9226                 1.1821                 1.3108
 Red. Mass:       5.3549                 1.1426                 1.0701
 IR Intens:       57.447                  7.866                 49.874
 Frequency:      1459.23                1613.70                1975.56
 Force Cnst:      1.3110                22.1974                28.0446
 Red. Mass:       1.0450                14.4678                12.1961
 IR Intens:       14.814                282.919                224.457
 Frequency:      3099.27                3213.96                3227.77
 Force Cnst:      5.8062                 6.7109                 6.8361
 Red. Mass:       1.0259                 1.1027                 1.1137
 IR Intens:        2.814                  9.704                  1.319

 STANDARD THERMODYNAMIC QUANTITIES AT   298.15 K  AND     1.00 ATM

   This Molecule has  1 Imaginary Frequencies
   Zero point vibrational energy:       35.469 kcal/mol

   Atom    1 Element C  Has Mass   12.00000
   Atom    2 Element C  Has Mass   12.00000
   Atom    3 Element N  Has Mass   14.00307
   Atom    4 Element O  Has Mass   15.99491
   Atom    5 Element N  Has Mass   14.00307
   Atom    6 Element N  Has Mass   14.00307
   Atom    7 Element H  Has Mass    1.00783
   Atom    8 Element H  Has Mass    1.00783
   Atom    9 Element H  Has Mass    1.00783
   Molecular Mass:    85.027610 amu
   Principal axes and moments of inertia in amu*Bohr^2:
                             1           2           3
    Eigenvalues --      169.77957   631.13783   788.84126
          X               0.98557    -0.16802     0.02046
          Y               0.12563     0.80714     0.57684
          Z              -0.11343    -0.56595     0.81660
   Rotational Symmetry Number is   1
   The Molecule is an Asymmetric Top
   Translational Enthalpy:        0.889 kcal/mol
   Rotational Enthalpy:           0.889 kcal/mol
   Vibrational Enthalpy:         37.358 kcal/mol
   gas constant (RT):             0.592 kcal/mol
   Translational Entropy:        39.234  cal/mol.K
   Rotational Entropy:           25.938  cal/mol.K
   Vibrational Entropy:          10.964  cal/mol.K

   Total Enthalpy:               39.728 kcal/mol
   Total Entropy:                76.137  cal/mol.K

 Total job time:  1131.29s(wall), 3692.11s(cpu)
        *  Thank you very much for using Q-Chem.  Have a nice day.  *
