 Q-Chem 5.1, Q-Chem, Inc., Pleasanton, CA (2018)
 Q-Chem 5.1.0 for Intel X86 EM64T Linux

User input:
--------------------------------------------------------------
$molecule
0 1
C   1.1392188660  -0.6569680606  -1.5331267643
C   0.0069141684  -0.1702423996   1.6539107391
C   0.9351234087   0.7959833685   1.6042007403
C   0.0947201892   0.1750896241  -1.6531709582
C  -1.0299505093   0.3707652578  -0.6660157678
C  -1.0143494767  -0.5066731043   0.5943004690
H   1.2930707198  -1.2686692397  -0.6446603604
H   1.8897970273  -0.7369042712  -2.3201908464
H  -0.0554229891  -0.7891112985   2.5551265569
H   1.0632919071   1.4329469147   0.7292701740
H   1.6149787228   0.9681265281   2.4391867335
H   0.0087188493   0.7785838027  -2.5628159551
H  -1.9778465919   0.1899179310  -1.2015627230
H  -1.0701393107   1.4336359354  -0.3705848691
H  -0.8945833609  -1.5641627627   0.3007143903
H  -2.0115876199  -0.4544852256   1.0642804409
$end

$rem
JOBTYPE                   OPT
METHOD                    wB97X-D3
BASIS                     def2-TZVP
UNRESTRICTED              TRUE
SCF_ALGORITHM             DIIS
MAX_SCF_CYCLES            100
SCF_CONVERGENCE           8
SYM_IGNORE                TRUE
SYMMETRY                  FALSE
GEOM_OPT_MAX_CYCLES       100
GEOM_OPT_TOL_GRADIENT     100
GEOM_OPT_TOL_DISPLACEMENT 400
GEOM_OPT_TOL_ENERGY       33
WAVEFUNCTION_ANALYSIS     FALSE
$end

--------------------------------------------------------------

   12    -234.6232827507      3.58e-09  Convergence criterion met
 Total energy in the final basis set =     -234.6232827507
   10    -234.6244604449      4.01e-09  Convergence criterion met
 Total energy in the final basis set =     -234.6244604449
   10    -234.6244764683      3.66e-09  Convergence criterion met
 Total energy in the final basis set =     -234.6244764683
    9    -234.6245086445      7.15e-09  Convergence criterion met
 Total energy in the final basis set =     -234.6245086445
    8    -234.6245109162      3.18e-09  Convergence criterion met
 Total energy in the final basis set =     -234.6245109162
    7    -234.6245111497      8.11e-09  Convergence criterion met
 Total energy in the final basis set =     -234.6245111497
 Final energy is   -234.624511149685
 **  OPTIMIZATION CONVERGED  **
 Total job time:  267.32s(wall), 4097.66s(cpu)
        *  Thank you very much for using Q-Chem.  Have a nice day.  *
 Q-Chem 5.1, Q-Chem, Inc., Pleasanton, CA (2018)
 Q-Chem 5.1.0 for Intel X86 EM64T Linux

User input:
--------------------------------------------------------------

$molecule
read
$end

$rem
JOBTYPE                   FREQ
METHOD                    wB97X-D3
BASIS                     def2-TZVP
UNRESTRICTED              TRUE
SCF_GUESS                 READ
SCF_ALGORITHM             DIIS
MAX_SCF_CYCLES            100
SCF_CONVERGENCE           8
SYM_IGNORE                TRUE
SYMMETRY                  FALSE
WAVEFUNCTION_ANALYSIS     FALSE
$end
--------------------------------------------------------------

             Standard Nuclear Orientation (Angstroms)
    I     Atom           X                Y                Z
 ----------------------------------------------------------------
    1      C       1.1146391409    -0.6792457265    -1.5515293253
    2      C       0.0125241900    -0.1634028069     1.6512145571
    3      C       0.9030342872     0.8155086189     1.6217625143
    4      C       0.1003316515     0.1653127471    -1.6520331030
    5      C      -1.0080347244     0.3710099415    -0.6591523721
    6      C      -0.9938595273    -0.5032463334     0.5888447222
    7      H       1.2580845578    -1.3097564378    -0.6815890166
    8      H       1.8528554572    -0.7614073005    -2.3397308887
    9      H      -0.0294302412    -0.7972291852     2.5343635152
   10      H       1.0103112582     1.4747351662     0.7679999472
   11      H       1.5740770673     0.9847431892     2.4547877719
   12      H       0.0273527128     0.7807465634    -2.5460843172
   13      H      -1.9536621636     0.2070730320    -1.1869161550
   14      H      -1.0296030494     1.4280553440    -0.3689197307
   15      H      -0.8618437438    -1.5531662553     0.3022779571
   16      H      -1.9848228733    -0.4618975568     1.0535659234
 ----------------------------------------------------------------

    2    -234.6245111497      8.16e-10  Convergence criterion met
 Total energy in the final basis set =     -234.6245111497
 Frequency:       105.99                 147.10                 152.16
 Force Cnst:      0.0178                 0.0248                 0.0287
 Red. Mass:       2.6869                 1.9481                 2.1072
 IR Intens:        0.012                  0.082                  0.077
 Frequency:       268.24                 285.58                 487.41
 Force Cnst:      0.0818                 0.1152                 0.3068
 Red. Mass:       1.9291                 2.3984                 2.1920
 IR Intens:        0.369                  0.271                  0.110
 Frequency:       538.61                 579.43                 628.55
 Force Cnst:      0.2112                 0.2505                 0.4372
 Red. Mass:       1.2354                 1.2661                 1.8781
 IR Intens:       10.616                 10.683                  3.106
 Frequency:       814.79                 875.37                 959.59
 Force Cnst:      1.1674                 0.8152                 0.8705
 Red. Mass:       2.9846                 1.8057                 1.6045
 IR Intens:        0.493                  0.460                 41.453
 Frequency:       970.16                 976.06                 998.65
 Force Cnst:      0.7345                 0.8704                 0.8834
 Red. Mass:       1.3245                 1.5507                 1.5034
 IR Intens:       26.898                 29.345                  0.091
 Frequency:      1015.15                1054.67                1061.50
 Force Cnst:      0.9991                 0.7184                 0.7866
 Red. Mass:       1.6454                 1.0962                 1.1848
 IR Intens:        0.897                 15.970                  7.248
 Frequency:      1094.84                1139.75                1223.48
 Force Cnst:      1.1012                 1.2194                 1.0285
 Red. Mass:       1.5593                 1.5932                 1.1662
 IR Intens:        0.720                  2.456                  2.597
 Frequency:      1283.96                1335.51                1340.66
 Force Cnst:      1.1478                 1.2946                 1.3217
 Red. Mass:       1.1818                 1.2320                 1.2481
 IR Intens:        2.043                  1.280                  0.231
 Frequency:      1396.83                1414.37                1448.79
 Force Cnst:      1.6342                 2.2054                 1.5142
 Red. Mass:       1.4216                 1.8712                 1.2244
 IR Intens:        3.280                  0.298                  2.455
 Frequency:      1451.65                1478.50                1487.89
 Force Cnst:      1.4418                 1.4138                 1.4110
 Red. Mass:       1.1613                 1.0977                 1.0818
 IR Intens:        6.092                 13.061                 17.298
 Frequency:      1742.08                1745.66                3039.88
 Force Cnst:      8.9231                 8.7865                 5.7835
 Red. Mass:       4.9903                 4.8938                 1.0622
 IR Intens:       15.657                 13.791                 19.513
 Frequency:      3043.73                3071.49                3074.56
 Force Cnst:      5.8147                 6.0918                 6.1258
 Red. Mass:       1.0653                 1.0960                 1.0999
 IR Intens:       14.748                 22.337                 22.878
 Frequency:      3153.37                3155.35                3171.30
 Force Cnst:      6.3203                 6.3121                 6.3712
 Red. Mass:       1.0788                 1.0760                 1.0752
 IR Intens:       26.358                 13.124                  3.778
 Frequency:      3171.93                3251.10                3252.44
 Force Cnst:      6.3533                 6.9494                 6.9551
 Red. Mass:       1.0718                 1.1159                 1.1159
 IR Intens:        3.476                 16.094                  9.810

 STANDARD THERMODYNAMIC QUANTITIES AT   298.15 K  AND     1.00 ATM

   This Molecule has  0 Imaginary Frequencies
   Zero point vibrational energy:       89.903 kcal/mol

   Atom    1 Element C  Has Mass   12.00000
   Atom    2 Element C  Has Mass   12.00000
   Atom    3 Element C  Has Mass   12.00000
   Atom    4 Element C  Has Mass   12.00000
   Atom    5 Element C  Has Mass   12.00000
   Atom    6 Element C  Has Mass   12.00000
   Atom    7 Element H  Has Mass    1.00783
   Atom    8 Element H  Has Mass    1.00783
   Atom    9 Element H  Has Mass    1.00783
   Atom   10 Element H  Has Mass    1.00783
   Atom   11 Element H  Has Mass    1.00783
   Atom   12 Element H  Has Mass    1.00783
   Atom   13 Element H  Has Mass    1.00783
   Atom   14 Element H  Has Mass    1.00783
   Atom   15 Element H  Has Mass    1.00783
   Atom   16 Element H  Has Mass    1.00783
   Molecular Mass:    82.078300 amu
   Principal axes and moments of inertia in amu*Bohr^2:
                             1           2           3
    Eigenvalues --      340.44275   693.08383   831.38248
          X              -0.04125     0.99731    -0.06056
          Y               0.11668     0.06501     0.99104
          Z               0.99231     0.03381    -0.11905
   Rotational Symmetry Number is   1
   The Molecule is an Asymmetric Top
   Translational Enthalpy:        0.889 kcal/mol
   Rotational Enthalpy:           0.889 kcal/mol
   Vibrational Enthalpy:         92.527 kcal/mol
   gas constant (RT):             0.592 kcal/mol
   Translational Entropy:        39.129  cal/mol.K
   Rotational Entropy:           26.775  cal/mol.K
   Vibrational Entropy:          15.277  cal/mol.K

   Total Enthalpy:               94.897 kcal/mol
   Total Entropy:                81.181  cal/mol.K

 Total job time:  2541.44s(wall), 9563.10s(cpu)
        *  Thank you very much for using Q-Chem.  Have a nice day.  *
