 Q-Chem 5.1, Q-Chem, Inc., Pleasanton, CA (2018)
 Q-Chem 5.1.0 for Intel X86 EM64T Linux

User input:
--------------------------------------------------------------
$molecule
0 1
C   0.9241399818  -0.7610788543  -0.6901338515
C   0.4795892290  -0.5919395421   0.7943983991
C   0.8335161058   0.9159894569   0.6137570709
C   0.2987842019   0.6600648700  -0.8275424397
C  -1.1977039154   0.3790451382  -0.5691105224
C  -1.0598082359  -0.5776956885   0.6675263339
H   0.4778130676  -1.5806069026  -1.2728059039
H   2.0152812921  -0.7562146824  -0.8083483975
H   0.9128371427  -1.1958581203   1.6002487451
H   1.9150809020   1.1018901185   0.6358643928
H   0.3044657379   1.6498358119   1.2396770927
H   0.5486427496   1.3247715282  -1.6629203074
H  -1.6819475971  -0.1068681244  -1.4272246960
H  -1.7562429866   1.2954023995  -0.3338713223
H  -1.4676647708  -1.5790772150   0.4731291471
H  -1.5467829043  -0.1776601934   1.5673562592
$end

$rem
JOBTYPE                   OPT
METHOD                    wB97X-D3
BASIS                     def2-TZVP
UNRESTRICTED              TRUE
SCF_ALGORITHM             DIIS
MAX_SCF_CYCLES            100
SCF_CONVERGENCE           8
SYM_IGNORE                TRUE
SYMMETRY                  FALSE
GEOM_OPT_MAX_CYCLES       100
GEOM_OPT_TOL_GRADIENT     100
GEOM_OPT_TOL_DISPLACEMENT 400
GEOM_OPT_TOL_ENERGY       33
WAVEFUNCTION_ANALYSIS     FALSE
$end

--------------------------------------------------------------

   11    -234.6422327481      3.46e-09  Convergence criterion met
 Total energy in the final basis set =     -234.6422327481
    8    -234.6431581767      6.47e-09  Convergence criterion met
 Total energy in the final basis set =     -234.6431581767
    7    -234.6431656029      7.64e-09  Convergence criterion met
 Total energy in the final basis set =     -234.6431656029
    7    -234.6431663719      4.29e-09  Convergence criterion met
 Total energy in the final basis set =     -234.6431663719
    6    -234.6431665012      3.36e-09  Convergence criterion met
 Total energy in the final basis set =     -234.6431665012
 Final energy is   -234.643166501162
 **  OPTIMIZATION CONVERGED  **
 Total job time:  226.10s(wall), 3467.78s(cpu)
        *  Thank you very much for using Q-Chem.  Have a nice day.  *
 Q-Chem 5.1, Q-Chem, Inc., Pleasanton, CA (2018)
 Q-Chem 5.1.0 for Intel X86 EM64T Linux

User input:
--------------------------------------------------------------

$molecule
read
$end

$rem
JOBTYPE                   FREQ
METHOD                    wB97X-D3
BASIS                     def2-TZVP
UNRESTRICTED              TRUE
SCF_GUESS                 READ
SCF_ALGORITHM             DIIS
MAX_SCF_CYCLES            100
SCF_CONVERGENCE           8
SYM_IGNORE                TRUE
SYMMETRY                  FALSE
WAVEFUNCTION_ANALYSIS     FALSE
$end
--------------------------------------------------------------

             Standard Nuclear Orientation (Angstroms)
    I     Atom           X                Y                Z
 ----------------------------------------------------------------
    1      C       0.9169305344    -0.7547182772    -0.6858514875
    2      C       0.4760970145    -0.5878824615     0.7867192747
    3      C       0.8267157984     0.9080471518     0.6094337072
    4      C       0.2968747779     0.6551134813    -0.8206915181
    5      C      -1.1879826220     0.3747872935    -0.5642534564
    6      C      -1.0514756035    -0.5719277645     0.6616017591
    7      H       0.4766389354    -1.5694965366    -1.2656222254
    8      H       2.0008959805    -0.7486506851    -0.8019952952
    9      H       0.9059897719    -1.1877836757     1.5873786187
   10      H       1.9010484862     1.0919820561     0.6321394953
   11      H       0.3023841754     1.6372401380     1.2316468665
   12      H       0.5446396849     1.3160949610    -1.6498660713
   13      H      -1.6690897137    -0.1070758068    -1.4172818652
   14      H      -1.7459500809     1.2841452396    -0.3337333419
   15      H      -1.4606574715    -1.5662958693     0.4739839888
   16      H      -1.5330596677    -0.1735792444     1.5563915506
 ----------------------------------------------------------------

    2    -234.6431665012      9.29e-10  Convergence criterion met
 Total energy in the final basis set =     -234.6431665012
 Frequency:       304.84                 434.95                 503.79
 Force Cnst:      0.0906                 0.2092                 0.2598
 Red. Mass:       1.6543                 1.8773                 1.7374
 IR Intens:        0.000                  0.203                  0.003
 Frequency:       655.96                 838.21                 845.30
 Force Cnst:      0.9371                 0.4795                 1.9499
 Red. Mass:       3.6963                 1.1582                 4.6317
 IR Intens:        0.010                  0.433                  2.672
 Frequency:       859.30                 867.89                 875.23
 Force Cnst:      1.0483                 0.9504                 0.8755
 Red. Mass:       2.4097                 2.1416                 1.9398
 IR Intens:        0.043                  4.173                  1.077
 Frequency:       932.88                 960.89                 978.76
 Force Cnst:      1.4805                 0.8871                 0.6753
 Red. Mass:       2.8873                 1.6307                 1.1964
 IR Intens:        0.790                  0.080                  0.049
 Frequency:       981.38                 987.20                1059.83
 Force Cnst:      0.7219                 1.2631                 1.4733
 Red. Mass:       1.2721                 2.1998                 2.2262
 IR Intens:        0.080                  0.000                  0.235
 Frequency:      1086.75                1090.24                1111.37
 Force Cnst:      0.7422                 1.2069                 0.8358
 Red. Mass:       1.0666                 1.7234                 1.1486
 IR Intens:        0.002                  0.022                  0.992
 Frequency:      1160.54                1163.81                1230.02
 Force Cnst:      0.9529                 1.4670                 1.1800
 Red. Mass:       1.2008                 1.8383                 1.3238
 IR Intens:        1.949                  0.043                  0.003
 Frequency:      1259.61                1261.55                1269.78
 Force Cnst:      1.5350                 1.8664                 1.1601
 Red. Mass:       1.6420                 1.9904                 1.2212
 IR Intens:        6.833                  1.175                  0.016
 Frequency:      1299.24                1306.24                1336.93
 Force Cnst:      1.7495                 1.5932                 1.8088
 Red. Mass:       1.7591                 1.5848                 1.7176
 IR Intens:        1.400                  1.829                  8.266
 Frequency:      1354.12                1491.59                1499.84
 Force Cnst:      1.6999                 1.4470                 1.4382
 Red. Mass:       1.5735                 1.1039                 1.0851
 IR Intens:        0.981                  3.525                  1.016
 Frequency:      1509.85                1537.70                3068.23
 Force Cnst:      1.5039                 1.5725                 5.8786
 Red. Mass:       1.1197                 1.1287                 1.0599
 IR Intens:        4.230                  0.069                 89.316
 Frequency:      3073.13                3073.53                3084.64
 Force Cnst:      5.9015                 5.8957                 5.9485
 Red. Mass:       1.0606                 1.0593                 1.0611
 IR Intens:       15.458                 25.244                 52.228
 Frequency:      3113.93                3131.71                3131.94
 Force Cnst:      6.3302                 6.3870                 6.3008
 Red. Mass:       1.1080                 1.1053                 1.0902
 IR Intens:        0.113                 40.204                 91.931
 Frequency:      3134.48                3138.47                3145.78
 Force Cnst:      6.3549                 6.4272                 6.4119
 Red. Mass:       1.0978                 1.1075                 1.0997
 IR Intens:       12.194                 24.807                 53.832

 STANDARD THERMODYNAMIC QUANTITIES AT   298.15 K  AND     1.00 ATM

   This Molecule has  0 Imaginary Frequencies
   Zero point vibrational energy:       93.139 kcal/mol

   Atom    1 Element C  Has Mass   12.00000
   Atom    2 Element C  Has Mass   12.00000
   Atom    3 Element C  Has Mass   12.00000
   Atom    4 Element C  Has Mass   12.00000
   Atom    5 Element C  Has Mass   12.00000
   Atom    6 Element C  Has Mass   12.00000
   Atom    7 Element H  Has Mass    1.00783
   Atom    8 Element H  Has Mass    1.00783
   Atom    9 Element H  Has Mass    1.00783
   Atom   10 Element H  Has Mass    1.00783
   Atom   11 Element H  Has Mass    1.00783
   Atom   12 Element H  Has Mass    1.00783
   Atom   13 Element H  Has Mass    1.00783
   Atom   14 Element H  Has Mass    1.00783
   Atom   15 Element H  Has Mass    1.00783
   Atom   16 Element H  Has Mass    1.00783
   Molecular Mass:    82.078300 amu
   Principal axes and moments of inertia in amu*Bohr^2:
                             1           2           3
    Eigenvalues --      338.18504   402.85248   448.68909
          X               0.99521     0.08811    -0.04227
          Y               0.08741    -0.60913     0.78824
          Z              -0.04370     0.78816     0.61391
   Rotational Symmetry Number is   1
   The Molecule is an Asymmetric Top
   Translational Enthalpy:        0.889 kcal/mol
   Rotational Enthalpy:           0.889 kcal/mol
   Vibrational Enthalpy:         94.286 kcal/mol
   gas constant (RT):             0.592 kcal/mol
   Translational Entropy:        39.129  cal/mol.K
   Rotational Entropy:           25.616  cal/mol.K
   Vibrational Entropy:           5.243  cal/mol.K

   Total Enthalpy:               96.656 kcal/mol
   Total Entropy:                69.988  cal/mol.K

 Total job time:  3060.59s(wall), 10805.80s(cpu)
        *  Thank you very much for using Q-Chem.  Have a nice day.  *
