 Q-Chem 5.1, Q-Chem, Inc., Pleasanton, CA (2018)
 Q-Chem 5.1.0 for Intel X86 EM64T Linux

User input:
--------------------------------------------------------------
$molecule
0 1
C   0.9742460652  -0.5458907552  -0.7186170532
C   0.4774070371  -0.3747034343   0.8163812280
C   1.1175460736   0.8161304045   1.3226151203
C   0.0287016563   0.2636073117  -1.4522345273
C  -1.3166061220   0.2746735022  -0.8126510177
C  -1.0843098587  -0.3834256715   0.5724765017
H   0.8770186486  -1.6408277984  -0.8571834373
H   2.0336082241  -0.2877530658  -0.8759945471
H   0.7176187105  -1.2461356094   1.4523849747
H   1.3160701776   1.6562511748   0.6581441916
H   1.4066196051   0.9126586845   2.3687596664
H   0.2965148982   0.9053517962  -2.2892281378
H  -2.0581854384  -0.3377309288  -1.3650314556
H  -1.7485894502   1.2870188694  -0.7689438566
H  -1.4231334782  -1.4313363831   0.5605976968
H  -1.6167307490   0.1301769032   1.3833856532
$end

$rem
JOBTYPE                   FREQ
METHOD                    wB97X-D3
BASIS                     def2-TZVP
UNRESTRICTED              TRUE
SCF_ALGORITHM             DIIS
MAX_SCF_CYCLES            100
SCF_CONVERGENCE           8
SYM_IGNORE                TRUE
SYMMETRY                  FALSE
WAVEFUNCTION_ANALYSIS     FALSE
$end

--------------------------------------------------------------

   14    -234.5071664864      8.83e-09  Convergence criterion met
 Total energy in the final basis set =     -234.5071664864
 Frequency:      -307.34                 234.09                 274.37
 Force Cnst:      0.0926                 0.0606                 0.0822
 Red. Mass:       1.6642                 1.8768                 1.8539
 IR Intens:       15.596                  1.348                  3.294
 Frequency:       354.46                 414.07                 629.43
 Force Cnst:      0.1759                 0.1814                 0.3270
 Red. Mass:       2.3769                 1.7953                 1.4009
 IR Intens:        1.913                 21.961                 13.122
 Frequency:       689.86                 713.52                 742.22
 Force Cnst:      0.5388                 0.6560                 0.7167
 Red. Mass:       1.9217                 2.1869                 2.2080
 IR Intens:       21.754                 20.576                 37.600
 Frequency:       755.47                 793.28                 839.39
 Force Cnst:      0.6863                 0.6253                 0.7770
 Red. Mass:       2.0410                 1.6865                 1.8718
 IR Intens:       43.856                 11.591                  5.496
 Frequency:       911.12                 934.55                 954.20
 Force Cnst:      0.9600                 1.1703                 0.7899
 Red. Mass:       1.9627                 2.2744                 1.4725
 IR Intens:       13.599                 11.323                  2.080
 Frequency:       999.63                1034.87                1049.32
 Force Cnst:      1.0411                 0.8153                 1.1999
 Red. Mass:       1.7683                 1.2921                 1.8497
 IR Intens:       26.672                  3.981                 90.351
 Frequency:      1111.23                1138.73                1166.71
 Force Cnst:      0.9437                 0.8996                 1.2679
 Red. Mass:       1.2971                 1.1775                 1.5810
 IR Intens:       10.628                  6.856                 20.113
 Frequency:      1193.12                1244.92                1286.84
 Force Cnst:      1.0730                 1.3910                 1.3343
 Red. Mass:       1.2793                 1.5233                 1.3676
 IR Intens:        0.827                  3.836                  4.632
 Frequency:      1301.66                1344.20                1393.72
 Force Cnst:      1.3572                 1.6146                 1.5390
 Red. Mass:       1.3595                 1.5167                 1.3447
 IR Intens:        0.442                 22.120                  6.060
 Frequency:      1406.97                1457.09                1479.22
 Force Cnst:      2.2267                 1.4559                 1.3990
 Red. Mass:       1.9092                 1.1639                 1.0852
 IR Intens:        1.551                 16.107                  2.688
 Frequency:      1492.86                1510.29                2922.66
 Force Cnst:      1.6850                 1.4931                 5.4001
 Red. Mass:       1.2833                 1.1110                 1.0730
 IR Intens:        8.275                  2.547                 28.484
 Frequency:      2940.35                2958.66                2997.81
 Force Cnst:      5.4426                 5.5827                 5.7466
 Red. Mass:       1.0685                 1.0824                 1.0853
 IR Intens:       17.161                 48.974                 14.843
 Frequency:      3003.60                3019.47                3070.80
 Force Cnst:      5.6845                 5.8602                 6.1149
 Red. Mass:       1.0695                 1.0909                 1.1006
 IR Intens:       67.933                 16.671                 13.483
 Frequency:      3107.43                3176.85                3205.43
 Force Cnst:      5.9865                 6.4915                 6.7672
 Red. Mass:       1.0523                 1.0917                 1.1178
 IR Intens:        3.822                  5.876                  6.329
 Total job time:  3007.80s(wall), 11336.22s(cpu)
        *  Thank you very much for using Q-Chem.  Have a nice day.  *
 Q-Chem 5.1, Q-Chem, Inc., Pleasanton, CA (2018)
 Q-Chem 5.1.0 for Intel X86 EM64T Linux

User input:
--------------------------------------------------------------

$molecule
read
$end

$rem
JOBTYPE                   TS
METHOD                    wB97X-D3
BASIS                     def2-TZVP
UNRESTRICTED              TRUE
SCF_GUESS                 READ
GEOM_OPT_HESSIAN          READ
SCF_ALGORITHM             DIIS
MAX_SCF_CYCLES            100
SCF_CONVERGENCE           8
SYM_IGNORE                TRUE
SYMMETRY                  FALSE
GEOM_OPT_MAX_CYCLES       100
GEOM_OPT_TOL_GRADIENT     100
GEOM_OPT_TOL_DISPLACEMENT 400
GEOM_OPT_TOL_ENERGY       33
WAVEFUNCTION_ANALYSIS     FALSE
$end

--------------------------------------------------------------

    2    -234.5071664864      3.35e-09  Convergence criterion met
 Total energy in the final basis set =     -234.5071664864
   11    -234.5097890795      9.27e-09  Convergence criterion met
 Total energy in the final basis set =     -234.5097890795
   12    -234.5102703629      5.63e-09  Convergence criterion met
 Total energy in the final basis set =     -234.5102703629
   11    -234.5103390323      4.68e-09  Convergence criterion met
 Total energy in the final basis set =     -234.5103390323
    9    -234.5103413928      7.56e-09  Convergence criterion met
 Total energy in the final basis set =     -234.5103413928
    7    -234.5103414553      9.25e-09  Convergence criterion met
 Total energy in the final basis set =     -234.5103414553
 Final energy is   -234.510341455267
 **  OPTIMIZATION CONVERGED  **
        *  Thank you very much for using Q-Chem.  Have a nice day.  *
 Q-Chem 5.1, Q-Chem, Inc., Pleasanton, CA (2018)
 Q-Chem 5.1.0 for Intel X86 EM64T Linux

User input:
--------------------------------------------------------------

$molecule
read
$end

$rem
JOBTYPE                   FREQ
METHOD                    wB97X-D3
BASIS                     def2-TZVP
UNRESTRICTED              TRUE
SCF_GUESS                 READ
SCF_ALGORITHM             DIIS
MAX_SCF_CYCLES            100
SCF_CONVERGENCE           8
SYM_IGNORE                TRUE
SYMMETRY                  FALSE
WAVEFUNCTION_ANALYSIS     FALSE
$end
--------------------------------------------------------------

             Standard Nuclear Orientation (Angstroms)
    I     Atom           X                Y                Z
 ----------------------------------------------------------------
    1      C       0.9560789700    -0.5585155512    -0.7310188048
    2      C       0.4553897037    -0.3673442680     0.8436978644
    3      C       1.1012215803     0.8317016676     1.2405500139
    4      C       0.0664094337     0.3485274506    -1.3557512981
    5      C      -1.3038217262     0.2688102611    -0.7937719237
    6      C      -1.0835272770    -0.4215659550     0.5618184675
    7      H       0.7452153474    -1.6311724396    -0.8315760284
    8      H       2.0198525614    -0.3862522939    -0.8967186432
    9      H       0.6896600204    -1.1942653169     1.5296052356
   10      H       1.3753218652     1.5797758143     0.5098683184
   11      H       1.3897573772     1.0038344757     2.2715093196
   12      H       0.3597582423     1.0602493145    -2.1154478027
   13      H      -1.9690326392    -0.3573335106    -1.4048258058
   14      H      -1.7797406890     1.2484645957    -0.7287117418
   15      H      -1.3831562389    -1.4734737646     0.5214177758
   16      H      -1.6415905314     0.0466245204     1.3742160537
 ----------------------------------------------------------------

    2    -234.5103414553      2.93e-09  Convergence criterion met
 Total energy in the final basis set =     -234.5103414553
 Frequency:      -491.23                 189.17                 249.78
 Force Cnst:      0.2594                 0.0388                 0.0707
 Red. Mass:       1.8246                 1.8386                 1.9220
 IR Intens:       18.269                  0.624                  1.621
 Frequency:       352.23                 420.80                 608.18
 Force Cnst:      0.1722                 0.1957                 0.3176
 Red. Mass:       2.3554                 1.8757                 1.4576
 IR Intens:        2.171                 13.575                  2.413
 Frequency:       656.44                 696.68                 735.51
 Force Cnst:      0.4440                 0.4724                 0.7918
 Red. Mass:       1.7487                 1.6521                 2.4842
 IR Intens:        4.942                 36.383                 27.057
 Frequency:       758.93                 794.79                 847.10
 Force Cnst:      0.7001                 0.5807                 0.8439
 Red. Mass:       2.0630                 1.5601                 1.9962
 IR Intens:       42.789                  8.285                 10.980
 Frequency:       925.46                 950.82                 960.48
 Force Cnst:      0.8466                 0.7712                 1.0777
 Red. Mass:       1.6777                 1.4479                 1.9828
 IR Intens:        1.180                 12.421                 12.597
 Frequency:      1014.10                1026.58                1064.54
 Force Cnst:      1.1249                 0.7830                 1.1064
 Red. Mass:       1.8565                 1.2610                 1.6571
 IR Intens:        6.100                  2.133                 57.567
 Frequency:      1118.94                1142.33                1159.65
 Force Cnst:      0.8523                 0.9528                 1.1476
 Red. Mass:       1.1553                 1.2393                 1.4484
 IR Intens:        3.707                  2.973                 44.456
 Frequency:      1196.12                1243.82                1295.85
 Force Cnst:      1.1586                 1.3626                 1.3186
 Red. Mass:       1.3745                 1.4948                 1.3328
 IR Intens:       10.293                  7.129                  0.807
 Frequency:      1303.51                1345.29                1411.41
 Force Cnst:      1.5002                 1.6816                 1.6425
 Red. Mass:       1.4986                 1.5770                 1.3994
 IR Intens:        0.684                  9.719                  3.478
 Frequency:      1428.23                1478.49                1489.79
 Force Cnst:      2.0458                 1.4790                 1.7622
 Red. Mass:       1.7022                 1.1484                 1.3476
 IR Intens:        1.207                 12.000                  5.261
 Frequency:      1506.13                1520.97                3000.63
 Force Cnst:      1.5676                 1.9422                 5.7397
 Red. Mass:       1.1729                 1.4249                 1.0820
 IR Intens:        4.618                  5.088                 62.740
 Frequency:      3014.67                3028.02                3062.12
 Force Cnst:      5.7376                 5.7763                 5.8928
 Red. Mass:       1.0715                 1.0693                 1.0667
 IR Intens:       31.991                 20.866                 62.386
 Frequency:      3097.80                3126.28                3133.31
 Force Cnst:      6.1658                 6.3373                 6.3303
 Red. Mass:       1.0905                 1.1005                 1.0944
 IR Intens:       14.867                 23.060                 11.210
 Frequency:      3166.00                3235.19                3267.00
 Force Cnst:      6.2335                 6.7378                 7.0120
 Red. Mass:       1.0555                 1.0926                 1.1151
 IR Intens:        2.554                  6.597                  7.980

 STANDARD THERMODYNAMIC QUANTITIES AT   298.15 K  AND     1.00 ATM

   This Molecule has  1 Imaginary Frequencies
   Zero point vibrational energy:       88.666 kcal/mol

   Atom    1 Element C  Has Mass   12.00000
   Atom    2 Element C  Has Mass   12.00000
   Atom    3 Element C  Has Mass   12.00000
   Atom    4 Element C  Has Mass   12.00000
   Atom    5 Element C  Has Mass   12.00000
   Atom    6 Element C  Has Mass   12.00000
   Atom    7 Element H  Has Mass    1.00783
   Atom    8 Element H  Has Mass    1.00783
   Atom    9 Element H  Has Mass    1.00783
   Atom   10 Element H  Has Mass    1.00783
   Atom   11 Element H  Has Mass    1.00783
   Atom   12 Element H  Has Mass    1.00783
   Atom   13 Element H  Has Mass    1.00783
   Atom   14 Element H  Has Mass    1.00783
   Atom   15 Element H  Has Mass    1.00783
   Atom   16 Element H  Has Mass    1.00783
   Molecular Mass:    82.078300 amu
   Principal axes and moments of inertia in amu*Bohr^2:
                             1           2           3
    Eigenvalues --      340.25613   480.75820   604.47052
          X               0.69132     0.71469    -0.10630
          Y               0.07440     0.07593     0.99433
          Z               0.71871    -0.69531    -0.00069
   Rotational Symmetry Number is   1
   The Molecule is an Asymmetric Top
   Translational Enthalpy:        0.889 kcal/mol
   Rotational Enthalpy:           0.889 kcal/mol
   Vibrational Enthalpy:         90.451 kcal/mol
   gas constant (RT):             0.592 kcal/mol
   Translational Entropy:        39.129  cal/mol.K
   Rotational Entropy:           26.094  cal/mol.K
   Vibrational Entropy:           9.003  cal/mol.K

   Total Enthalpy:               92.821 kcal/mol
   Total Entropy:                74.226  cal/mol.K

 Total job time:  2522.99s(wall), 9567.43s(cpu)
        *  Thank you very much for using Q-Chem.  Have a nice day.  *
