 Q-Chem 5.1, Q-Chem, Inc., Pleasanton, CA (2018)
 Q-Chem 5.1.0 for Intel X86 EM64T Linux

User input:
--------------------------------------------------------------
$molecule
0 1
C   1.9169986459   1.1709873045  -0.0000630925
O   0.9813057205   0.8324674900   1.0123078291
C  -1.0046645750  -1.4913352102  -0.1300193037
C  -1.8017436098  -0.3034634127  -0.5957076295
O  -1.5311377014   0.8676196224  -0.3630414281
H   2.9143475656   0.9109111704   0.3783631923
H   1.7561080145   0.6143746778  -0.9436178881
H   1.9150748729   2.2505162779  -0.2400364813
H  -0.1164199023  -1.1740240747   0.4284831260
H  -1.6462630257  -2.1302479185   0.4983739094
H  -0.7190929720  -2.1035923584  -1.0002851545
H  -2.7098239213  -0.5450204026  -1.1974575777
H   0.0901448880   1.0351378341   0.6504074986
$end

$rem
JOBTYPE                   OPT
METHOD                    wB97X-D3
BASIS                     def2-TZVP
UNRESTRICTED              TRUE
SCF_ALGORITHM             DIIS
MAX_SCF_CYCLES            100
SCF_CONVERGENCE           8
SYM_IGNORE                TRUE
SYMMETRY                  FALSE
GEOM_OPT_MAX_CYCLES       100
GEOM_OPT_TOL_GRADIENT     100
GEOM_OPT_TOL_DISPLACEMENT 400
GEOM_OPT_TOL_ENERGY       33
WAVEFUNCTION_ANALYSIS     FALSE
$end

--------------------------------------------------------------

   13    -269.5911979846      2.03e-09  Convergence criterion met
 Total energy in the final basis set =     -269.5911979846
   12    -269.5926614408      6.76e-09  Convergence criterion met
 Total energy in the final basis set =     -269.5926614408
   11    -269.5927317784      4.17e-09  Convergence criterion met
 Total energy in the final basis set =     -269.5927317784
   11    -269.5927539145      3.58e-09  Convergence criterion met
 Total energy in the final basis set =     -269.5927539145
   10    -269.5927593203      3.62e-09  Convergence criterion met
 Total energy in the final basis set =     -269.5927593203
   11    -269.5927643224      3.25e-09  Convergence criterion met
 Total energy in the final basis set =     -269.5927643224
   11    -269.5927693528      3.05e-09  Convergence criterion met
 Total energy in the final basis set =     -269.5927693528
   11    -269.5927759080      6.40e-09  Convergence criterion met
 Total energy in the final basis set =     -269.5927759080
   11    -269.5927795544      3.15e-09  Convergence criterion met
 Total energy in the final basis set =     -269.5927795544
   10    -269.5927806959      2.99e-09  Convergence criterion met
 Total energy in the final basis set =     -269.5927806959
   10    -269.5927811105      4.97e-09  Convergence criterion met
 Total energy in the final basis set =     -269.5927811105
    9    -269.5927814230      3.44e-09  Convergence criterion met
 Total energy in the final basis set =     -269.5927814230
 Final energy is   -269.592781422982
 **  OPTIMIZATION CONVERGED  **
 Total job time:  336.50s(wall), 4305.50s(cpu)
        *  Thank you very much for using Q-Chem.  Have a nice day.  *
 Q-Chem 5.1, Q-Chem, Inc., Pleasanton, CA (2018)
 Q-Chem 5.1.0 for Intel X86 EM64T Linux

User input:
--------------------------------------------------------------

$molecule
read
$end

$rem
JOBTYPE                   FREQ
METHOD                    wB97X-D3
BASIS                     def2-TZVP
UNRESTRICTED              TRUE
SCF_GUESS                 READ
SCF_ALGORITHM             DIIS
MAX_SCF_CYCLES            100
SCF_CONVERGENCE           8
SYM_IGNORE                TRUE
SYMMETRY                  FALSE
WAVEFUNCTION_ANALYSIS     FALSE
$end
--------------------------------------------------------------

             Standard Nuclear Orientation (Angstroms)
    I     Atom           X                Y                Z
 ----------------------------------------------------------------
    1      C       2.0298385145     1.2752590141     0.0229040290
    2      O       1.0463614843     0.8270135796     0.9248609853
    3      C      -1.1150127292    -1.5669063576    -0.1309355188
    4      C      -1.8644590808    -0.3584573895    -0.5888975660
    5      O      -1.5063120008     0.7804548203    -0.4234716589
    6      H       3.0042049562     1.0781509148     0.4710353847
    7      H       1.9834572374     0.7487672177    -0.9387934397
    8      H       1.9537975030     2.3516984971    -0.1694205988
    9      H      -0.1967832539    -1.2906033191     0.3853654037
   10      H      -1.7587605240    -2.1579107108     0.5259457330
   11      H      -0.8912673528    -2.1956512193    -0.9970811919
   12      H      -2.8179368761    -0.5524963690    -1.1191095511
   13      H       0.1777061221     0.9950123217     0.5353049894
 ----------------------------------------------------------------

    2    -269.5927814298      7.17e-10  Convergence criterion met
 Total energy in the final basis set =     -269.5927814298
 Frequency:        39.83                  69.76                  78.19
 Force Cnst:      0.0027                 0.0066                 0.0052
 Red. Mass:       2.8883                 2.2897                 1.4361
 IR Intens:        4.462                  6.410                  6.998
 Frequency:       110.70                 120.45                 170.69
 Force Cnst:      0.0147                 0.0188                 0.0229
 Red. Mass:       2.0348                 2.2035                 1.3328
 IR Intens:        5.039                  8.163                  1.928
 Frequency:       187.77                 533.42                 650.70
 Force Cnst:      0.0811                 0.4335                 0.2616
 Red. Mass:       3.9046                 2.5856                 1.0487
 IR Intens:        5.576                 14.872                183.360
 Frequency:       787.81                 908.44                1105.51
 Force Cnst:      0.4080                 0.9935                 2.4172
 Red. Mass:       1.1157                 2.0433                 3.3568
 IR Intens:        1.676                  6.446                115.767
 Frequency:      1127.38                1150.69                1159.12
 Force Cnst:      1.0395                 1.3939                 1.6167
 Red. Mass:       1.3881                 1.7868                 2.0423
 IR Intens:        0.674                  1.088                 25.336
 Frequency:      1187.89                1391.73                1428.99
 Force Cnst:      1.0626                 1.4056                 1.4785
 Red. Mass:       1.2781                 1.2317                 1.2288
 IR Intens:        0.890                 27.166                 12.332
 Frequency:      1439.09                1467.69                1481.95
 Force Cnst:      1.4726                 1.3557                 1.3666
 Red. Mass:       1.2068                 1.0681                 1.0562
 IR Intens:       23.277                 21.928                 11.578
 Frequency:      1488.15                1499.83                1522.18
 Force Cnst:      1.4599                 1.3992                 1.4327
 Red. Mass:       1.1188                 1.0557                 1.0495
 IR Intens:        9.681                  3.908                  4.088
 Frequency:      1836.05                2942.67                3006.56
 Force Cnst:     18.8172                 5.5339                 5.5251
 Red. Mass:       9.4740                 1.0847                 1.0374
 IR Intens:      223.668                108.900                 67.726
 Frequency:      3056.97                3060.17                3128.31
 Force Cnst:      5.7097                 6.0824                 6.3323
 Red. Mass:       1.0370                 1.1024                 1.0982
 IR Intens:       11.096                 62.445                  3.870
 Frequency:      3131.31                3173.17                3740.90
 Force Cnst:      6.3461                 6.5637                 8.8007
 Red. Mass:       1.0985                 1.1064                 1.0674
 IR Intens:       39.717                  0.846                389.539

 STANDARD THERMODYNAMIC QUANTITIES AT   298.15 K  AND     1.00 ATM

   This Molecule has  0 Imaginary Frequencies
   Zero point vibrational energy:       68.883 kcal/mol

   Atom    1 Element C  Has Mass   12.00000
   Atom    2 Element O  Has Mass   15.99491
   Atom    3 Element C  Has Mass   12.00000
   Atom    4 Element C  Has Mass   12.00000
   Atom    5 Element O  Has Mass   15.99491
   Atom    6 Element H  Has Mass    1.00783
   Atom    7 Element H  Has Mass    1.00783
   Atom    8 Element H  Has Mass    1.00783
   Atom    9 Element H  Has Mass    1.00783
   Atom   10 Element H  Has Mass    1.00783
   Atom   11 Element H  Has Mass    1.00783
   Atom   12 Element H  Has Mass    1.00783
   Atom   13 Element H  Has Mass    1.00783
   Molecular Mass:    76.052460 amu
   Principal axes and moments of inertia in amu*Bohr^2:
                             1           2           3
    Eigenvalues --      218.84195   890.26289  1013.27250
          X               0.86286    -0.41050    -0.29490
          Y               0.46121     0.87814     0.12711
          Z               0.20678    -0.24568     0.94704
   Rotational Symmetry Number is   1
   The Molecule is an Asymmetric Top
   Translational Enthalpy:        0.889 kcal/mol
   Rotational Enthalpy:           0.889 kcal/mol
   Vibrational Enthalpy:         72.426 kcal/mol
   gas constant (RT):             0.592 kcal/mol
   Translational Entropy:        38.902  cal/mol.K
   Rotational Entropy:           26.781  cal/mol.K
   Vibrational Entropy:          26.066  cal/mol.K

   Total Enthalpy:               74.796 kcal/mol
   Total Entropy:                91.749  cal/mol.K

 Total job time:  1201.59s(wall), 4049.62s(cpu)
        *  Thank you very much for using Q-Chem.  Have a nice day.  *
