 Q-Chem 5.1, Q-Chem, Inc., Pleasanton, CA (2018)
 Q-Chem 5.1.0 for Intel X86 EM64T Linux

User input:
--------------------------------------------------------------
$molecule
0 1
C   1.7204738732   0.8658149733   0.2848455539
O   0.4320353519   0.5112794118   0.7865944814
C  -0.4435431016  -1.0758148161  -0.2719464001
C  -1.6814764916  -0.3282449511  -0.4260210607
O  -1.5877353867   0.9235852211  -0.7638854176
H   1.9224420851   1.9286769712   0.4905931028
H   2.4668490972   0.2516790342   0.8032040244
H   1.8093528057   0.7010799898  -0.8026128470
H   0.3246488139  -0.9248355878  -1.0281744479
H  -0.3983594246  -1.9994537791   0.3124691618
H  -1.7666522713  -1.2017434560  -1.3042099927
H  -2.5106594604  -0.6588785775   0.2393057666
H  -0.2839468907   0.9995905661   0.2074570751
$end

$rem
JOBTYPE                   FREQ
METHOD                    wB97X-D3
BASIS                     def2-TZVP
UNRESTRICTED              TRUE
SCF_ALGORITHM             DIIS
MAX_SCF_CYCLES            100
SCF_CONVERGENCE           8
SYM_IGNORE                TRUE
SYMMETRY                  FALSE
WAVEFUNCTION_ANALYSIS     FALSE
$end

--------------------------------------------------------------

   15    -269.4663023151      6.81e-09  Convergence criterion met
 Total energy in the final basis set =     -269.4663023151
 Frequency:      -982.85                 185.33                 227.06
 Force Cnst:      1.0114                 0.0669                 0.0726
 Red. Mass:       1.7771                 3.3038                 2.3894
 IR Intens:      302.724                 45.385                  7.183
 Frequency:       274.89                 288.03                 387.46
 Force Cnst:      0.0679                 0.1110                 0.2674
 Red. Mass:       1.5250                 2.2713                 3.0229
 IR Intens:       44.741                 77.378                  9.301
 Frequency:       426.22                 560.59                 838.21
 Force Cnst:      0.2433                 0.4301                 0.4964
 Red. Mass:       2.2731                 2.3227                 1.1991
 IR Intens:       25.064                 28.384                  9.149
 Frequency:       962.08                1052.53                1077.28
 Force Cnst:      0.8491                 3.6973                 0.8720
 Red. Mass:       1.5570                 5.6646                 1.2753
 IR Intens:        6.340                 74.367                  2.843
 Frequency:      1119.23                1143.03                1201.35
 Force Cnst:      0.9150                 0.9401                 1.0825
 Red. Mass:       1.2398                 1.2213                 1.2731
 IR Intens:       36.202                 34.977                  3.156
 Frequency:      1206.97                1243.00                1287.74
 Force Cnst:      1.4295                 1.2338                 1.3314
 Red. Mass:       1.6655                 1.3553                 1.3627
 IR Intens:       13.862                200.717                 76.606
 Frequency:      1314.50                1440.62                1483.42
 Force Cnst:      1.6574                 1.5780                 1.4745
 Red. Mass:       1.6280                 1.2905                 1.1373
 IR Intens:       86.842                 40.520                 17.623
 Frequency:      1499.41                1507.70                1519.39
 Force Cnst:      1.6590                 1.6057                 1.4564
 Red. Mass:       1.2524                 1.1989                 1.0707
 IR Intens:       29.942                 36.583                 23.409
 Frequency:      1585.94                2042.05                2496.57
 Force Cnst:      1.6695                 2.5970                 4.0361
 Red. Mass:       1.1266                 1.0570                 1.0991
 IR Intens:      109.871                109.462                516.672
 Frequency:      2888.40                2963.55                3028.12
 Force Cnst:      5.3137                 5.3624                 5.9512
 Red. Mass:       1.0810                 1.0363                 1.1016
 IR Intens:       56.366                 45.421                 34.372
 Frequency:      3077.33                3097.33                3217.85
 Force Cnst:      6.1547                 5.9700                 6.8344
 Red. Mass:       1.1031                 1.0562                 1.1203
 IR Intens:       23.023                  1.194                  1.735
 Total job time:  1468.64s(wall), 5238.21s(cpu)
        *  Thank you very much for using Q-Chem.  Have a nice day.  *
 Q-Chem 5.1, Q-Chem, Inc., Pleasanton, CA (2018)
 Q-Chem 5.1.0 for Intel X86 EM64T Linux

User input:
--------------------------------------------------------------

$molecule
read
$end

$rem
JOBTYPE                   TS
METHOD                    wB97X-D3
BASIS                     def2-TZVP
UNRESTRICTED              TRUE
SCF_GUESS                 READ
GEOM_OPT_HESSIAN          READ
SCF_ALGORITHM             DIIS
MAX_SCF_CYCLES            100
SCF_CONVERGENCE           8
SYM_IGNORE                TRUE
SYMMETRY                  FALSE
GEOM_OPT_MAX_CYCLES       100
GEOM_OPT_TOL_GRADIENT     100
GEOM_OPT_TOL_DISPLACEMENT 400
GEOM_OPT_TOL_ENERGY       33
WAVEFUNCTION_ANALYSIS     FALSE
$end

--------------------------------------------------------------

    2    -269.4663023080      1.42e-09  Convergence criterion met
 Total energy in the final basis set =     -269.4663023080
   13    -269.4678489817      5.34e-09  Convergence criterion met
 Total energy in the final basis set =     -269.4678489817
   11    -269.4679148987      9.05e-09  Convergence criterion met
 Total energy in the final basis set =     -269.4679148987
   10    -269.4679176226      5.99e-09  Convergence criterion met
 Total energy in the final basis set =     -269.4679176226
    8    -269.4679185143      7.63e-09  Convergence criterion met
 Total energy in the final basis set =     -269.4679185143
    8    -269.4679188593      7.59e-09  Convergence criterion met
 Total energy in the final basis set =     -269.4679188593
    7    -269.4679189634      7.47e-09  Convergence criterion met
 Total energy in the final basis set =     -269.4679189634
 Final energy is   -269.467918963358
 **  OPTIMIZATION CONVERGED  **
        *  Thank you very much for using Q-Chem.  Have a nice day.  *
 Q-Chem 5.1, Q-Chem, Inc., Pleasanton, CA (2018)
 Q-Chem 5.1.0 for Intel X86 EM64T Linux

User input:
--------------------------------------------------------------

$molecule
read
$end

$rem
JOBTYPE                   FREQ
METHOD                    wB97X-D3
BASIS                     def2-TZVP
UNRESTRICTED              TRUE
SCF_GUESS                 READ
SCF_ALGORITHM             DIIS
MAX_SCF_CYCLES            100
SCF_CONVERGENCE           8
SYM_IGNORE                TRUE
SYMMETRY                  FALSE
WAVEFUNCTION_ANALYSIS     FALSE
$end
--------------------------------------------------------------

             Standard Nuclear Orientation (Angstroms)
    I     Atom           X                Y                Z
 ----------------------------------------------------------------
    1      C       1.7156648111     0.8528397256     0.2957088082
    2      O       0.4247972239     0.4626572422     0.7218530663
    3      C      -0.4401580118    -1.0443194243    -0.2924190830
    4      C      -1.6785004150    -0.3328212956    -0.4274206697
    5      O      -1.5943878156     0.8981158873    -0.8144763476
    6      H       1.8837681235     1.9072629664     0.5261978137
    7      H       2.4482450357     0.2500715611     0.8316022791
    8      H       1.8487003274     0.7094026829    -0.7824287665
    9      H       0.2909517436    -0.8978748609    -1.0784222784
   10      H      -0.3661920583    -1.9437051429     0.3131510122
   11      H      -1.7944414888    -1.2283085612    -1.2537831498
   12      H      -2.4648243319    -0.6252760677     0.2906297606
   13      H      -0.2701941437     0.9846902870     0.1974265549
 ----------------------------------------------------------------

    2    -269.4679189704      2.40e-09  Convergence criterion met
 Total energy in the final basis set =     -269.4679189704
 Frequency:      -968.14                 126.19                 147.38
 Force Cnst:      1.0425                 0.0133                 0.0241
 Red. Mass:       1.8878                 1.4165                 1.8811
 IR Intens:      369.773                  4.174                 31.473
 Frequency:       199.21                 277.84                 384.71
 Force Cnst:      0.0558                 0.2269                 0.2077
 Red. Mass:       2.3850                 4.9885                 2.3814
 IR Intens:        4.267                121.622                  5.876
 Frequency:       445.96                 553.63                 845.49
 Force Cnst:      0.3463                 0.3905                 0.5076
 Red. Mass:       2.9555                 2.1627                 1.2052
 IR Intens:       32.002                 26.353                 12.378
 Frequency:       970.44                1065.88                1082.34
 Force Cnst:      0.8449                 0.8250                 0.9004
 Red. Mass:       1.5227                 1.2325                 1.3045
 IR Intens:       10.135                 75.756                  1.330
 Frequency:      1101.48                1148.58                1195.73
 Force Cnst:      2.2147                 1.0072                 1.0713
 Red. Mass:       3.0982                 1.2958                 1.2718
 IR Intens:      108.028                  1.341                 12.040
 Frequency:      1208.63                1238.76                1287.56
 Force Cnst:      1.1607                 1.2946                 1.5765
 Red. Mass:       1.3486                 1.4319                 1.6140
 IR Intens:       79.379                 48.556                 25.130
 Frequency:      1337.33                1436.73                1480.53
 Force Cnst:      1.5729                 1.6455                 1.4740
 Red. Mass:       1.4927                 1.3530                 1.1413
 IR Intens:       94.360                 50.446                 17.432
 Frequency:      1500.38                1510.77                1515.48
 Force Cnst:      1.4342                 1.5868                 2.0514
 Red. Mass:       1.0813                 1.1800                 1.5160
 IR Intens:        4.586                 61.574                 74.071
 Frequency:      1574.89                2134.53                2855.55
 Force Cnst:      1.6662                 2.8344                 5.2111
 Red. Mass:       1.1402                 1.0559                 1.0847
 IR Intens:       96.139                129.630                519.137
 Frequency:      2962.21                3033.93                3106.44
 Force Cnst:      5.5910                 5.6303                 6.2482
 Red. Mass:       1.0815                 1.0382                 1.0990
 IR Intens:       61.247                 38.312                 29.473
 Frequency:      3148.25                3149.99                3269.05
 Force Cnst:      6.4266                 6.1901                 7.0641
 Red. Mass:       1.1005                 1.0588                 1.1219
 IR Intens:       13.292                  6.305                  2.392

 STANDARD THERMODYNAMIC QUANTITIES AT   298.15 K  AND     1.00 ATM

   This Molecule has  1 Imaginary Frequencies
   Zero point vibrational energy:       67.613 kcal/mol

   Atom    1 Element C  Has Mass   12.00000
   Atom    2 Element O  Has Mass   15.99491
   Atom    3 Element C  Has Mass   12.00000
   Atom    4 Element C  Has Mass   12.00000
   Atom    5 Element O  Has Mass   15.99491
   Atom    6 Element H  Has Mass    1.00783
   Atom    7 Element H  Has Mass    1.00783
   Atom    8 Element H  Has Mass    1.00783
   Atom    9 Element H  Has Mass    1.00783
   Atom   10 Element H  Has Mass    1.00783
   Atom   11 Element H  Has Mass    1.00783
   Atom   12 Element H  Has Mass    1.00783
   Atom   13 Element H  Has Mass    1.00783
   Molecular Mass:    76.052460 amu
   Principal axes and moments of inertia in amu*Bohr^2:
                             1           2           3
    Eigenvalues --      195.13284   585.73480   696.36034
          X               0.91850    -0.19221    -0.34557
          Y               0.22914     0.97094     0.06899
          Z               0.32227    -0.14255     0.93585
   Rotational Symmetry Number is   1
   The Molecule is an Asymmetric Top
   Translational Enthalpy:        0.889 kcal/mol
   Rotational Enthalpy:           0.889 kcal/mol
   Vibrational Enthalpy:         69.765 kcal/mol
   gas constant (RT):             0.592 kcal/mol
   Translational Entropy:        38.902  cal/mol.K
   Rotational Entropy:           25.879  cal/mol.K
   Vibrational Entropy:          12.533  cal/mol.K

   Total Enthalpy:               72.135 kcal/mol
   Total Entropy:                77.314  cal/mol.K

 Total job time:  1426.82s(wall), 4781.16s(cpu)
        *  Thank you very much for using Q-Chem.  Have a nice day.  *
