 Q-Chem 5.1, Q-Chem, Inc., Pleasanton, CA (2018)
 Q-Chem 5.1.0 for Intel X86 EM64T Linux

User input:
--------------------------------------------------------------
$molecule
0 1
C   2.3409028910   0.4591120894   0.2838415551
O   0.5840584409   0.4292287063   0.5506279185
C   0.0098598891  -0.6899690062  -0.1779968866
C  -1.4477969454  -0.3725427190  -0.4588701023
O  -1.4364298133   0.8686872681  -1.1738656656
H   2.5141328256   1.1832415692   1.1178033334
H   2.5151532691  -0.5144498762   0.8061585779
H   0.3373525154   1.2075955538   0.0015125956
H   0.5910783585  -0.8190078726  -1.1014831341
H   0.1208001392  -1.5691638695   0.4641888154
H  -1.8896178670  -1.1915400772  -1.0536332190
H  -2.0047487173  -0.2885576184   0.4897700984
H  -2.3371759857   1.2372558523  -1.1646118868
$end

$rem
JOBTYPE                   OPT
METHOD                    wB97X-D3
BASIS                     def2-TZVP
UNRESTRICTED              TRUE
SCF_ALGORITHM             DIIS
MAX_SCF_CYCLES            100
SCF_CONVERGENCE           8
SYM_IGNORE                TRUE
SYMMETRY                  FALSE
GEOM_OPT_MAX_CYCLES       100
GEOM_OPT_TOL_GRADIENT     100
GEOM_OPT_TOL_DISPLACEMENT 400
GEOM_OPT_TOL_ENERGY       33
WAVEFUNCTION_ANALYSIS     FALSE
$end

--------------------------------------------------------------

   13    -269.4502753417      7.61e-09  Convergence criterion met
 Total energy in the final basis set =     -269.4502753417
   12    -269.4520080196      4.55e-09  Convergence criterion met
 Total energy in the final basis set =     -269.4520080196
   12    -269.4523900108      3.59e-09  Convergence criterion met
 Total energy in the final basis set =     -269.4523900108
   11    -269.4525626325      6.01e-09  Convergence criterion met
 Total energy in the final basis set =     -269.4525626325
   10    -269.4525972437      7.48e-09  Convergence criterion met
 Total energy in the final basis set =     -269.4525972437
    9    -269.4526044118      4.80e-09  Convergence criterion met
 Total energy in the final basis set =     -269.4526044118
    9    -269.4526060582      9.77e-09  Convergence criterion met
 Total energy in the final basis set =     -269.4526060582
    9    -269.4526065801      4.01e-09  Convergence criterion met
 Total energy in the final basis set =     -269.4526065801
    8    -269.4526066930      4.45e-09  Convergence criterion met
 Total energy in the final basis set =     -269.4526066930
 Final energy is   -269.452606693049
 **  OPTIMIZATION CONVERGED  **
 Total job time:  279.88s(wall), 3724.78s(cpu)
        *  Thank you very much for using Q-Chem.  Have a nice day.  *
 Q-Chem 5.1, Q-Chem, Inc., Pleasanton, CA (2018)
 Q-Chem 5.1.0 for Intel X86 EM64T Linux

User input:
--------------------------------------------------------------

$molecule
read
$end

$rem
JOBTYPE                   FREQ
METHOD                    wB97X-D3
BASIS                     def2-TZVP
UNRESTRICTED              TRUE
SCF_GUESS                 READ
SCF_ALGORITHM             DIIS
MAX_SCF_CYCLES            100
SCF_CONVERGENCE           8
SYM_IGNORE                TRUE
SYMMETRY                  FALSE
WAVEFUNCTION_ANALYSIS     FALSE
$end
--------------------------------------------------------------

             Standard Nuclear Orientation (Angstroms)
    I     Atom           X                Y                Z
 ----------------------------------------------------------------
    1      C       2.2906231659     0.4194684477     0.3379094639
    2      O       0.6156030332     0.4505619567     0.4892319180
    3      C       0.0302544268    -0.6577064679    -0.2072116974
    4      C      -1.4289663439    -0.3643065656    -0.4404308144
    5      O      -1.4772978043     0.8508235399    -1.1667186746
    6      H       2.4886198363     1.1511217135     1.1394442592
    7      H       2.4412920274    -0.5505778286     0.8438472818
    8      H       0.3890049486     1.2339687152    -0.0317936878
    9      H       0.5783085916    -0.7882362254    -1.1437578329
   10      H       0.1683857770    -1.5330665664     0.4253471520
   11      H      -1.8738386153    -1.1919541776    -1.0041868472
   12      H      -1.9523368057    -0.2717611983     0.5176564664
   13      H      -2.3720832377     1.1915546568    -1.1758949870
 ----------------------------------------------------------------

    2    -269.4526067001      1.65e-09  Convergence criterion met
 Total energy in the final basis set =     -269.4526067001
 Frequency:        92.88                 128.22                 190.57
 Force Cnst:      0.0197                 0.0117                 0.0553
 Red. Mass:       3.8832                 1.2053                 2.5848
 IR Intens:        7.300                 30.347                 21.414
 Frequency:       235.05                 274.67                 319.23
 Force Cnst:      0.0594                 0.0602                 0.1959
 Red. Mass:       1.8234                 1.3539                 3.2623
 IR Intens:       28.002                109.336                  7.408
 Frequency:       463.55                 597.17                 773.84
 Force Cnst:      0.5307                 0.6200                 0.3878
 Red. Mass:       4.1923                 2.9511                 1.0992
 IR Intens:       35.742                 69.598                135.479
 Frequency:       888.16                 912.46                1049.81
 Force Cnst:      0.8119                 1.1395                 1.3400
 Red. Mass:       1.7468                 2.3228                 2.0637
 IR Intens:       24.670                 27.578                 77.456
 Frequency:      1104.73                1127.28                1171.88
 Force Cnst:      1.2554                 1.9544                 0.9617
 Red. Mass:       1.7459                 2.6103                 1.1885
 IR Intens:       51.470                 38.025                  7.604
 Frequency:      1191.15                1221.62                1274.85
 Force Cnst:      1.0618                 1.0716                 1.1262
 Red. Mass:       1.2702                 1.2187                 1.1762
 IR Intens:        4.151                 30.878                 21.626
 Frequency:      1297.55                1370.82                1421.34
 Force Cnst:      1.1874                 1.3633                 1.4533
 Red. Mass:       1.1970                 1.2313                 1.2210
 IR Intens:       44.075                 22.242                 54.856
 Frequency:      1431.15                1470.98                1506.45
 Force Cnst:      1.2876                 1.9905                 1.4734
 Red. Mass:       1.0670                 1.5614                 1.1020
 IR Intens:       16.914                  1.956                  8.689
 Frequency:      1520.35                2962.31                3030.07
 Force Cnst:      1.4899                 5.4605                 5.9715
 Red. Mass:       1.0940                 1.0561                 1.1039
 IR Intens:        5.718                 81.267                 97.561
 Frequency:      3034.80                3074.53                3089.73
 Force Cnst:      5.7363                 6.0904                 6.0585
 Red. Mass:       1.0571                 1.0936                 1.0771
 IR Intens:       36.301                  8.070                 38.934
 Frequency:      3160.63                3774.94                3915.89
 Force Cnst:      6.5041                 8.9481                 9.6383
 Red. Mass:       1.1051                 1.0658                 1.0668
 IR Intens:        8.476                139.345                 62.627

 STANDARD THERMODYNAMIC QUANTITIES AT   298.15 K  AND     1.00 ATM

   This Molecule has  0 Imaginary Frequencies
   Zero point vibrational energy:       70.161 kcal/mol

   Atom    1 Element C  Has Mass   12.00000
   Atom    2 Element O  Has Mass   15.99491
   Atom    3 Element C  Has Mass   12.00000
   Atom    4 Element C  Has Mass   12.00000
   Atom    5 Element O  Has Mass   15.99491
   Atom    6 Element H  Has Mass    1.00783
   Atom    7 Element H  Has Mass    1.00783
   Atom    8 Element H  Has Mass    1.00783
   Atom    9 Element H  Has Mass    1.00783
   Atom   10 Element H  Has Mass    1.00783
   Atom   11 Element H  Has Mass    1.00783
   Atom   12 Element H  Has Mass    1.00783
   Atom   13 Element H  Has Mass    1.00783
   Molecular Mass:    76.052460 amu
   Principal axes and moments of inertia in amu*Bohr^2:
                             1           2           3
    Eigenvalues --      147.89379   664.48646   743.64083
          X               0.93033     0.07114    -0.35974
          Y               0.01360     0.97363     0.22771
          Z               0.36646    -0.21674     0.90484
   Rotational Symmetry Number is   1
   The Molecule is an Asymmetric Top
   Translational Enthalpy:        0.889 kcal/mol
   Rotational Enthalpy:           0.889 kcal/mol
   Vibrational Enthalpy:         72.772 kcal/mol
   gas constant (RT):             0.592 kcal/mol
   Translational Entropy:        38.902  cal/mol.K
   Rotational Entropy:           25.794  cal/mol.K
   Vibrational Entropy:          15.700  cal/mol.K

   Total Enthalpy:               75.142 kcal/mol
   Total Entropy:                80.396  cal/mol.K

 Total job time:  1328.61s(wall), 4626.59s(cpu)
        *  Thank you very much for using Q-Chem.  Have a nice day.  *
