 Q-Chem 5.1, Q-Chem, Inc., Pleasanton, CA (2018)
 Q-Chem 5.1.0 for Intel X86 EM64T Linux

User input:
--------------------------------------------------------------
$molecule
0 1
C   2.3047324814   0.6777757166   0.4056647442
O   0.4398353279   0.5690193014   0.4769048157
C  -0.0582036219  -0.6302377152  -0.1824900430
C  -1.5464925602  -0.4713056988  -0.4695483908
O  -1.8115411260   0.5881802051  -1.3826028376
H   2.4168467692   0.9905908865   1.4645888419
H   2.5038560765  -0.4158073542   0.4254763771
H   0.7676337216   1.2029518936  -0.2300425072
H   0.5091972863  -0.7909123855  -1.1095783951
H   0.1287601573  -1.4594522055   0.5115535021
H  -1.9064438099  -1.3916787906  -0.9503923149
H  -2.0964062492  -0.3486988611   0.4798966981
H  -1.6853684530   1.4231330076  -0.8961124906
$end

$rem
JOBTYPE                   FREQ
METHOD                    wB97X-D3
BASIS                     def2-TZVP
UNRESTRICTED              TRUE
SCF_ALGORITHM             DIIS
MAX_SCF_CYCLES            100
SCF_CONVERGENCE           8
SYM_IGNORE                TRUE
SYMMETRY                  FALSE
WAVEFUNCTION_ANALYSIS     FALSE
$end

--------------------------------------------------------------

   13    -269.4429029130      7.51e-09  Convergence criterion met
 Total energy in the final basis set =     -269.4429029130
 Frequency:       -57.94                 178.94                 222.07
 Force Cnst:      0.0064                 0.0738                 0.1121
 Red. Mass:       3.2513                 3.9108                 3.8575
 IR Intens:      148.022                 24.923                 13.705
 Frequency:       255.63                 326.17                 339.99
 Force Cnst:      0.0925                 0.0701                 0.0902
 Red. Mass:       2.4032                 1.1179                 1.3247
 IR Intens:        8.109                233.936                328.629
 Frequency:       387.41                 567.56                 612.45
 Force Cnst:      0.2732                 0.5118                 0.2383
 Red. Mass:       3.0892                 2.6964                 1.0782
 IR Intens:       14.368                 54.258                 22.368
 Frequency:       857.24                 899.19                 972.62
 Force Cnst:      1.1056                 0.8830                 0.6894
 Red. Mass:       2.5536                 1.8536                 1.2370
 IR Intens:       43.854                 12.208                 16.236
 Frequency:      1044.48                1088.34                1101.57
 Force Cnst:      1.5009                 1.6943                 1.4035
 Red. Mass:       2.3351                 2.4278                 1.9631
 IR Intens:       76.017                 73.919                 14.844
 Frequency:      1130.98                1223.18                1273.48
 Force Cnst:      0.8845                 0.9494                 1.1367
 Red. Mass:       1.1737                 1.0771                 1.1896
 IR Intens:        2.295                  9.711                 31.410
 Frequency:      1401.05                1406.53                1411.48
 Force Cnst:      1.4726                 1.3319                 1.3380
 Red. Mass:       1.2733                 1.1427                 1.1399
 IR Intens:        2.652                 25.147                 14.048
 Frequency:      1423.47                1440.31                1496.49
 Force Cnst:      1.4550                 1.5661                 1.4327
 Red. Mass:       1.2188                 1.2813                 1.0858
 IR Intens:       11.059                 37.683                 11.205
 Frequency:      1507.72                2916.76                2975.63
 Force Cnst:      1.4620                 5.3002                 5.5700
 Red. Mass:       1.0916                 1.0574                 1.0677
 IR Intens:        2.266                 47.711                 34.609
 Frequency:      2992.42                3020.82                3053.25
 Force Cnst:      5.8247                 5.6972                 6.0260
 Red. Mass:       1.1040                 1.0596                 1.0971
 IR Intens:       54.615                 14.481                 26.547
 Frequency:      3085.16                3245.81                3690.22
 Force Cnst:      6.2265                 6.6039                 8.5535
 Red. Mass:       1.1103                 1.0639                 1.0661
 IR Intens:       17.137                101.385                 31.303
 Total job time:  1249.87s(wall), 4655.01s(cpu)
        *  Thank you very much for using Q-Chem.  Have a nice day.  *
 Q-Chem 5.1, Q-Chem, Inc., Pleasanton, CA (2018)
 Q-Chem 5.1.0 for Intel X86 EM64T Linux

User input:
--------------------------------------------------------------

$molecule
read
$end

$rem
JOBTYPE                   TS
METHOD                    wB97X-D3
BASIS                     def2-TZVP
UNRESTRICTED              TRUE
SCF_GUESS                 READ
GEOM_OPT_HESSIAN          READ
SCF_ALGORITHM             DIIS
MAX_SCF_CYCLES            100
SCF_CONVERGENCE           8
SYM_IGNORE                TRUE
SYMMETRY                  FALSE
GEOM_OPT_MAX_CYCLES       100
GEOM_OPT_TOL_GRADIENT     100
GEOM_OPT_TOL_DISPLACEMENT 400
GEOM_OPT_TOL_ENERGY       33
WAVEFUNCTION_ANALYSIS     FALSE
$end

--------------------------------------------------------------

    2    -269.4429029129      2.24e-09  Convergence criterion met
 Total energy in the final basis set =     -269.4429029129
   12    -269.4427784093      6.78e-09  Convergence criterion met
 Total energy in the final basis set =     -269.4427784093
   12    -269.4439671498      5.21e-09  Convergence criterion met
 Total energy in the final basis set =     -269.4439671498
   12    -269.4439073600      4.85e-09  Convergence criterion met
 Total energy in the final basis set =     -269.4439073600
   11    -269.4439936024      7.54e-09  Convergence criterion met
 Total energy in the final basis set =     -269.4439936024
   10    -269.4439965126      3.50e-09  Convergence criterion met
 Total energy in the final basis set =     -269.4439965126
    9    -269.4439975381      5.28e-09  Convergence criterion met
 Total energy in the final basis set =     -269.4439975381
    8    -269.4439977093      7.15e-09  Convergence criterion met
 Total energy in the final basis set =     -269.4439977093
 Final energy is   -269.443997709263
 **  OPTIMIZATION CONVERGED  **
        *  Thank you very much for using Q-Chem.  Have a nice day.  *
 Q-Chem 5.1, Q-Chem, Inc., Pleasanton, CA (2018)
 Q-Chem 5.1.0 for Intel X86 EM64T Linux

User input:
--------------------------------------------------------------

$molecule
read
$end

$rem
JOBTYPE                   FREQ
METHOD                    wB97X-D3
BASIS                     def2-TZVP
UNRESTRICTED              TRUE
SCF_GUESS                 READ
SCF_ALGORITHM             DIIS
MAX_SCF_CYCLES            100
SCF_CONVERGENCE           8
SYM_IGNORE                TRUE
SYMMETRY                  FALSE
WAVEFUNCTION_ANALYSIS     FALSE
$end
--------------------------------------------------------------

             Standard Nuclear Orientation (Angstroms)
    I     Atom           X                Y                Z
 ----------------------------------------------------------------
    1      C       2.2018029996     0.6595653047     0.4368204920
    2      O       0.4457681236     0.5677126342     0.4507961123
    3      C      -0.0432275207    -0.6141106910    -0.1902920623
    4      C      -1.5244633495    -0.4660111463    -0.4562933100
    5      O      -1.8026538006     0.5729848195    -1.3672097021
    6      H       2.3415816999     0.9816845671     1.4729331198
    7      H       2.4454199909    -0.4080213655     0.3872953082
    8      H       0.9158722781     1.1705755405    -0.2260403432
    9      H       0.5045238814    -0.7706505373    -1.1240355145
   10      H       0.1498309806    -1.4506384298     0.4857963058
   11      H      -1.8918972478    -1.3906949203    -0.9065047278
   12      H      -2.0568382533    -0.3208741201     0.4907709197
   13      H      -1.7193137824     1.4120363441    -0.9107185980
 ----------------------------------------------------------------

    2    -269.4439977093      2.53e-09  Convergence criterion met
 Total energy in the final basis set =     -269.4439977093
 Frequency:      -864.41                  82.39                 131.25
 Force Cnst:      0.4767                 0.0173                 0.0238
 Red. Mass:       1.0827                 4.3304                 2.3444
 IR Intens:      824.743                  3.273                  3.931
 Frequency:       221.02                 250.05                 295.66
 Force Cnst:      0.0731                 0.0565                 0.1091
 Red. Mass:       2.5393                 1.5335                 2.1185
 IR Intens:       13.776                 33.487                112.080
 Frequency:       327.92                 422.31                 572.06
 Force Cnst:      0.0762                 0.3955                 0.4997
 Red. Mass:       1.2024                 3.7640                 2.5914
 IR Intens:       70.602                 21.967                 61.496
 Frequency:       877.41                 905.37                1007.05
 Force Cnst:      0.9588                 0.8873                 0.8087
 Red. Mass:       2.1139                 1.8372                 1.3534
 IR Intens:       34.753                  6.506                 35.053
 Frequency:      1076.62                1099.35                1130.28
 Force Cnst:      1.0265                 1.5374                 1.3730
 Red. Mass:       1.5031                 2.1591                 1.8241
 IR Intens:       38.326                 80.831                 30.170
 Frequency:      1143.01                1209.48                1264.26
 Force Cnst:      1.2817                 1.0082                 1.2121
 Red. Mass:       1.6650                 1.1698                 1.2871
 IR Intens:       37.616                  3.676                 35.032
 Frequency:      1366.07                1395.27                1395.88
 Force Cnst:      1.2754                 1.2960                 1.3857
 Red. Mass:       1.1600                 1.1299                 1.2071
 IR Intens:       22.045                  1.584                 10.055
 Frequency:      1411.54                1436.70                1492.83
 Force Cnst:      1.4174                 1.7624                 1.4220
 Red. Mass:       1.2075                 1.4492                 1.0830
 IR Intens:       24.582                 13.451                 11.827
 Frequency:      1503.43                2984.41                3042.46
 Force Cnst:      1.4531                 5.5845                 5.8178
 Red. Mass:       1.0912                 1.0642                 1.0667
 IR Intens:        2.128                192.808                 32.492
 Frequency:      3047.58                3063.43                3115.60
 Force Cnst:      5.7748                 5.8565                 6.2816
 Red. Mass:       1.0553                 1.0592                 1.0983
 IR Intens:       29.333                  9.567                 22.758
 Frequency:      3122.53                3138.05                3892.58
 Force Cnst:      6.3729                 6.4329                 9.5203
 Red. Mass:       1.1094                 1.1087                 1.0664
 IR Intens:       15.941                 41.544                 38.303

 STANDARD THERMODYNAMIC QUANTITIES AT   298.15 K  AND     1.00 ATM

   This Molecule has  1 Imaginary Frequencies
   Zero point vibrational energy:       67.796 kcal/mol

   Atom    1 Element C  Has Mass   12.00000
   Atom    2 Element O  Has Mass   15.99491
   Atom    3 Element C  Has Mass   12.00000
   Atom    4 Element C  Has Mass   12.00000
   Atom    5 Element O  Has Mass   15.99491
   Atom    6 Element H  Has Mass    1.00783
   Atom    7 Element H  Has Mass    1.00783
   Atom    8 Element H  Has Mass    1.00783
   Atom    9 Element H  Has Mass    1.00783
   Atom   10 Element H  Has Mass    1.00783
   Atom   11 Element H  Has Mass    1.00783
   Atom   12 Element H  Has Mass    1.00783
   Atom   13 Element H  Has Mass    1.00783
   Molecular Mass:    76.052460 amu
   Principal axes and moments of inertia in amu*Bohr^2:
                             1           2           3
    Eigenvalues --      141.55649   725.96927   793.65283
          X               0.91255     0.00534    -0.40894
          Y               0.11125     0.95897     0.26078
          Z               0.39355    -0.28347     0.87451
   Rotational Symmetry Number is   1
   The Molecule is an Asymmetric Top
   Translational Enthalpy:        0.889 kcal/mol
   Rotational Enthalpy:           0.889 kcal/mol
   Vibrational Enthalpy:         70.341 kcal/mol
   gas constant (RT):             0.592 kcal/mol
   Translational Entropy:        38.902  cal/mol.K
   Rotational Entropy:           25.903  cal/mol.K
   Vibrational Entropy:          15.342  cal/mol.K

   Total Enthalpy:               72.711 kcal/mol
   Total Entropy:                80.146  cal/mol.K

 Total job time:  1341.96s(wall), 4719.53s(cpu)
        *  Thank you very much for using Q-Chem.  Have a nice day.  *
