 Q-Chem 5.1, Q-Chem, Inc., Pleasanton, CA (2018)
 Q-Chem 5.1.0 for Intel X86 EM64T Linux

User input:
--------------------------------------------------------------
$molecule
0 1
C   0.8307922300  -0.7048456058  -0.8852956015
C   0.5109759458  -0.3056908715   0.5864450874
C   1.0450587946   1.0991201864   0.9066749562
C  -0.2781807860  -0.3554983178  -1.8149022222
C  -1.3939889782  -0.0192680251  -0.8828018624
C  -1.0335263038  -0.3775367119   0.5852897280
H   0.7270397925  -1.8140079154  -0.9914380894
H   1.8457712903  -0.4788722376  -1.2442170339
H   0.9448222643  -1.0213519794   1.2999178382
H   2.1401873353   1.1329025365   0.8149047777
H   0.7809061967   1.3978222557   1.9309804232
H   0.6325963613   1.8528928177   0.2191113847
H  -2.3941670518  -0.3168457959  -1.2298862181
H  -1.3739955509   1.0878406975  -1.0186226000
H  -1.3683248070  -1.4036466872   0.8007514366
H  -1.4971177329   0.2873416538   1.3268209955
$end

$rem
JOBTYPE                   OPT
METHOD                    wB97X-D3
BASIS                     def2-TZVP
UNRESTRICTED              TRUE
SCF_ALGORITHM             DIIS
MAX_SCF_CYCLES            100
SCF_CONVERGENCE           8
SYM_IGNORE                TRUE
SYMMETRY                  FALSE
GEOM_OPT_MAX_CYCLES       100
GEOM_OPT_TOL_GRADIENT     100
GEOM_OPT_TOL_DISPLACEMENT 400
GEOM_OPT_TOL_ENERGY       33
WAVEFUNCTION_ANALYSIS     FALSE
$end

--------------------------------------------------------------

   12    -234.5533608433      8.40e-09  Convergence criterion met
 Total energy in the final basis set =     -234.5533608433
   11    -234.5544169835      5.82e-09  Convergence criterion met
 Total energy in the final basis set =     -234.5544169835
   10    -234.5544329766      4.69e-09  Convergence criterion met
 Total energy in the final basis set =     -234.5544329766
    9    -234.5544343527      4.27e-09  Convergence criterion met
 Total energy in the final basis set =     -234.5544343527
    8    -234.5544345645      4.77e-09  Convergence criterion met
 Total energy in the final basis set =     -234.5544345645
 Final energy is   -234.554434564537
 **  OPTIMIZATION CONVERGED  **
 Total job time:  285.63s(wall), 4366.96s(cpu)
        *  Thank you very much for using Q-Chem.  Have a nice day.  *
 Q-Chem 5.1, Q-Chem, Inc., Pleasanton, CA (2018)
 Q-Chem 5.1.0 for Intel X86 EM64T Linux

User input:
--------------------------------------------------------------

$molecule
read
$end

$rem
JOBTYPE                   FREQ
METHOD                    wB97X-D3
BASIS                     def2-TZVP
UNRESTRICTED              TRUE
SCF_GUESS                 READ
SCF_ALGORITHM             DIIS
MAX_SCF_CYCLES            100
SCF_CONVERGENCE           8
SYM_IGNORE                TRUE
SYMMETRY                  FALSE
WAVEFUNCTION_ANALYSIS     FALSE
$end
--------------------------------------------------------------

             Standard Nuclear Orientation (Angstroms)
    I     Atom           X                Y                Z
 ----------------------------------------------------------------
    1      C       0.8276452959    -0.7023703147    -0.8762822261
    2      C       0.5066587917    -0.3011154482     0.5769150864
    3      C       1.0414182903     1.0900826235     0.9050973474
    4      C      -0.2813845255    -0.3616445184    -1.7892744249
    5      C      -1.3920250725    -0.0200643167    -0.8741500862
    6      C      -1.0267046409    -0.3708722754     0.5774336467
    7      H       0.7350481570    -1.8033787245    -0.9919339389
    8      H       1.8278367150    -0.4659931706    -1.2445888595
    9      H       0.9331748694    -1.0143246807     1.2862748798
   10      H       2.1297012559     1.1213832673     0.8188031189
   11      H       0.7787382370     1.3820315050     1.9237699030
   12      H       0.6395722969     1.8477098745     0.2265015467
   13      H      -2.3795375034    -0.3247368419    -1.2237153471
   14      H      -1.3749822627     1.0771264047    -1.0274888999
   15      H      -1.3616101717    -1.3869160977     0.8037825285
   16      H      -1.4847007321     0.2934387138     1.3125887251
 ----------------------------------------------------------------

    2    -234.5544345648      1.00e-09  Convergence criterion met
 Total energy in the final basis set =     -234.5544345648
 Frequency:       172.09                 222.72                 229.30
 Force Cnst:      0.0429                 0.0331                 0.0445
 Red. Mass:       2.4563                 1.1339                 1.4364
 IR Intens:        2.177                  1.416                  9.911
 Frequency:       349.73                 370.06                 510.14
 Force Cnst:      0.1151                 0.1529                 0.2339
 Red. Mass:       1.5976                 1.8944                 1.5253
 IR Intens:        1.097                  1.156                  3.968
 Frequency:       642.44                 746.49                 789.39
 Force Cnst:      0.6030                 0.9980                 1.6129
 Red. Mass:       2.4799                 3.0396                 4.3931
 IR Intens:        5.332                 12.445                  1.707
 Frequency:       829.33                 886.16                 920.17
 Force Cnst:      1.0346                 0.8015                 0.9076
 Red. Mass:       2.5532                 1.7324                 1.8193
 IR Intens:        4.629                  2.973                  1.719
 Frequency:       946.33                 981.08                 982.18
 Force Cnst:      1.3683                 0.8974                 0.7952
 Red. Mass:       2.5932                 1.5824                 1.3991
 IR Intens:        0.454                  2.437                  2.200
 Frequency:      1019.02                1053.51                1123.04
 Force Cnst:      0.8363                 1.0508                 1.1969
 Red. Mass:       1.3669                 1.6070                 1.6108
 IR Intens:        3.054                  2.111                  4.484
 Frequency:      1170.54                1197.53                1225.63
 Force Cnst:      1.0247                 1.3867                 1.6087
 Red. Mass:       1.2693                 1.6412                 1.8176
 IR Intens:        4.140                  1.335                  2.302
 Frequency:      1279.82                1288.12                1333.58
 Force Cnst:      1.4094                 1.9958                 1.5746
 Red. Mass:       1.4604                 2.0415                 1.5028
 IR Intens:        3.300                 28.791                  0.545
 Frequency:      1346.47                1375.20                1392.54
 Force Cnst:      1.6852                 1.3433                 1.3628
 Red. Mass:       1.5777                 1.2056                 1.1928
 IR Intens:        0.608                  3.558                 23.624
 Frequency:      1403.72                1426.09                1492.50
 Force Cnst:      1.4582                 1.5179                 1.3907
 Red. Mass:       1.2561                 1.2668                 1.0596
 IR Intens:        8.742                  8.737                  8.412
 Frequency:      1498.42                1509.35                2945.42
 Force Cnst:      1.4236                 1.4178                 5.4800
 Red. Mass:       1.0762                 1.0563                 1.0721
 IR Intens:        0.388                  9.246                 11.808
 Frequency:      2966.14                3052.42                3065.72
 Force Cnst:      5.5609                 5.6916                 5.8982
 Red. Mass:       1.0728                 1.0368                 1.0651
 IR Intens:        8.734                 23.118                 20.409
 Frequency:      3087.58                3112.96                3118.47
 Force Cnst:      6.0937                 6.2126                 6.3088
 Red. Mass:       1.0849                 1.0881                 1.1011
 IR Intens:       26.043                 16.519                 16.549
 Frequency:      3122.69                3125.02                3133.20
 Force Cnst:      6.2712                 6.3194                 6.3768
 Red. Mass:       1.0916                 1.0983                 1.1025
 IR Intens:       31.910                 23.725                 28.593

 STANDARD THERMODYNAMIC QUANTITIES AT   298.15 K  AND     1.00 ATM

   This Molecule has  0 Imaginary Frequencies
   Zero point vibrational energy:       89.266 kcal/mol

   Atom    1 Element C  Has Mass   12.00000
   Atom    2 Element C  Has Mass   12.00000
   Atom    3 Element C  Has Mass   12.00000
   Atom    4 Element C  Has Mass   12.00000
   Atom    5 Element C  Has Mass   12.00000
   Atom    6 Element C  Has Mass   12.00000
   Atom    7 Element H  Has Mass    1.00783
   Atom    8 Element H  Has Mass    1.00783
   Atom    9 Element H  Has Mass    1.00783
   Atom   10 Element H  Has Mass    1.00783
   Atom   11 Element H  Has Mass    1.00783
   Atom   12 Element H  Has Mass    1.00783
   Atom   13 Element H  Has Mass    1.00783
   Atom   14 Element H  Has Mass    1.00783
   Atom   15 Element H  Has Mass    1.00783
   Atom   16 Element H  Has Mass    1.00783
   Molecular Mass:    82.078300 amu
   Principal axes and moments of inertia in amu*Bohr^2:
                             1           2           3
    Eigenvalues --      325.31541   510.46294   639.96859
          X               0.61486     0.78560    -0.06913
          Y               0.33252    -0.17876     0.92600
          Z               0.71511    -0.59234    -0.37114
   Rotational Symmetry Number is   1
   The Molecule is an Asymmetric Top
   Translational Enthalpy:        0.889 kcal/mol
   Rotational Enthalpy:           0.889 kcal/mol
   Vibrational Enthalpy:         91.404 kcal/mol
   gas constant (RT):             0.592 kcal/mol
   Translational Entropy:        39.129  cal/mol.K
   Rotational Entropy:           26.166  cal/mol.K
   Vibrational Entropy:          11.303  cal/mol.K

   Total Enthalpy:               93.774 kcal/mol
   Total Entropy:                76.598  cal/mol.K

 Total job time:  2967.28s(wall), 11545.26s(cpu)
        *  Thank you very much for using Q-Chem.  Have a nice day.  *
