 Q-Chem 5.1, Q-Chem, Inc., Pleasanton, CA (2018)
 Q-Chem 5.1.0 for Intel X86 EM64T Linux

User input:
--------------------------------------------------------------
$molecule
0 1
C   0.8657677768  -0.7705004741  -0.7729104273
C   0.5052968637  -0.4842856902   0.6948107229
C   0.9462322577   0.9960042316   0.6735636071
C   0.1183818773   0.5002777931  -1.2949100519
C  -1.2690502430   0.2704382972  -0.6897018045
C  -1.0362401749  -0.5002670527   0.6556124750
H   0.4328005200  -1.6942116526  -1.1863431942
H   1.9436107626  -0.7524435880  -0.9828855716
H   0.9464180823  -1.0885306747   1.5045391383
H   2.0343852634   1.1311770559   0.6514074488
H   0.4442218144   1.6933861926   1.3552059449
H   0.7045427675   1.4168273309  -0.5209352958
H  -1.8064564194  -0.3475128396  -1.4287157247
H  -1.8435158088   1.1977709383  -0.5713946269
H  -1.4196012384  -1.5302885360   0.6390262586
H  -1.4869831012   0.0137266684   1.5158091012
$end

$rem
JOBTYPE                   FREQ
METHOD                    wB97X-D3
BASIS                     def2-TZVP
UNRESTRICTED              TRUE
SCF_ALGORITHM             DIIS
MAX_SCF_CYCLES            100
SCF_CONVERGENCE           8
SYM_IGNORE                TRUE
SYMMETRY                  FALSE
WAVEFUNCTION_ANALYSIS     FALSE
$end

--------------------------------------------------------------

   13    -234.5143417167      7.23e-09  Convergence criterion met
 Total energy in the final basis set =     -234.5143417167
 Frequency:      -720.22                 311.92                 409.27
 Force Cnst:      0.4995                 0.1012                 0.1845
 Red. Mass:       1.6344                 1.7649                 1.8692
 IR Intens:       81.837                  0.951                  0.266
 Frequency:       477.75                 643.07                 665.39
 Force Cnst:      0.2438                 0.8025                 0.3161
 Red. Mass:       1.8128                 3.2938                 1.2117
 IR Intens:        1.185                  4.276                  1.338
 Frequency:       758.77                 817.76                 848.28
 Force Cnst:      1.4446                 0.6964                 1.0918
 Red. Mass:       4.2587                 1.7675                 2.5753
 IR Intens:       11.771                  7.405                  3.531
 Frequency:       878.49                 891.49                 927.56
 Force Cnst:      0.7935                 1.3334                 1.2864
 Red. Mass:       1.7452                 2.8476                 2.5377
 IR Intens:        3.296                  1.448                  4.397
 Frequency:       930.35                 962.58                 987.59
 Force Cnst:      1.0212                 1.2680                 1.0123
 Red. Mass:       2.0025                 2.3226                 1.7616
 IR Intens:        1.775                  2.284                  1.890
 Frequency:      1002.02                1073.25                1092.97
 Force Cnst:      0.8878                 1.1150                 1.1472
 Red. Mass:       1.5008                 1.6430                 1.6300
 IR Intens:        1.768                  1.351                  5.360
 Frequency:      1141.16                1168.45                1200.24
 Force Cnst:      0.8914                 0.9666                 1.0403
 Red. Mass:       1.1619                 1.2016                 1.2257
 IR Intens:        2.133                  0.773                 10.025
 Frequency:      1229.22                1260.89                1276.40
 Force Cnst:      1.1566                 1.4557                 1.3403
 Red. Mass:       1.2992                 1.5541                 1.3963
 IR Intens:        8.355                  4.178                  1.293
 Frequency:      1318.13                1329.52                1345.71
 Force Cnst:      1.6150                 1.5362                 1.6853
 Red. Mass:       1.5776                 1.4751                 1.5796
 IR Intens:        4.982                  4.614                  4.134
 Frequency:      1389.27                1461.86                1480.51
 Force Cnst:      1.2291                 1.3828                 1.3987
 Red. Mass:       1.0808                 1.0982                 1.0830
 IR Intens:        2.224                  5.566                  5.699
 Frequency:      1507.87                1528.68                1942.75
 Force Cnst:      1.4716                 1.5238                 2.3431
 Red. Mass:       1.0985                 1.1068                 1.0537
 IR Intens:        5.023                  1.208                 10.410
 Frequency:      2991.30                2994.22                3009.03
 Force Cnst:      5.6877                 5.6447                 5.6537
 Red. Mass:       1.0789                 1.0686                 1.0598
 IR Intens:       28.047                 34.307                 39.529
 Frequency:      3016.61                3034.11                3049.95
 Force Cnst:      5.7075                 5.7255                 6.0473
 Red. Mass:       1.0645                 1.0556                 1.1034
 IR Intens:       50.386                 13.161                  7.019
 Frequency:      3062.81                3067.32                3117.96
 Force Cnst:      6.1105                 6.1141                 6.3732
 Red. Mass:       1.1056                 1.1030                 1.1127
 IR Intens:       32.504                 30.726                 10.970
 Total job time:  3187.36s(wall), 13506.27s(cpu)
        *  Thank you very much for using Q-Chem.  Have a nice day.  *
 Q-Chem 5.1, Q-Chem, Inc., Pleasanton, CA (2018)
 Q-Chem 5.1.0 for Intel X86 EM64T Linux

User input:
--------------------------------------------------------------

$molecule
read
$end

$rem
JOBTYPE                   TS
METHOD                    wB97X-D3
BASIS                     def2-TZVP
UNRESTRICTED              TRUE
SCF_GUESS                 READ
GEOM_OPT_HESSIAN          READ
SCF_ALGORITHM             DIIS
MAX_SCF_CYCLES            100
SCF_CONVERGENCE           8
SYM_IGNORE                TRUE
SYMMETRY                  FALSE
GEOM_OPT_MAX_CYCLES       100
GEOM_OPT_TOL_GRADIENT     100
GEOM_OPT_TOL_DISPLACEMENT 400
GEOM_OPT_TOL_ENERGY       33
WAVEFUNCTION_ANALYSIS     FALSE
$end

--------------------------------------------------------------

    2    -234.5143417166      2.11e-09  Convergence criterion met
 Total energy in the final basis set =     -234.5143417166
   12    -234.5160326435      3.58e-09  Convergence criterion met
 Total energy in the final basis set =     -234.5160326435
   11    -234.5160878890      2.85e-09  Convergence criterion met
 Total energy in the final basis set =     -234.5160878890
    9    -234.5160967238      6.55e-09  Convergence criterion met
 Total energy in the final basis set =     -234.5160967238
    8    -234.5160951410      4.79e-09  Convergence criterion met
 Total energy in the final basis set =     -234.5160951410
 Final energy is   -234.516095141013
 **  OPTIMIZATION CONVERGED  **
        *  Thank you very much for using Q-Chem.  Have a nice day.  *
 Q-Chem 5.1, Q-Chem, Inc., Pleasanton, CA (2018)
 Q-Chem 5.1.0 for Intel X86 EM64T Linux

User input:
--------------------------------------------------------------

$molecule
read
$end

$rem
JOBTYPE                   FREQ
METHOD                    wB97X-D3
BASIS                     def2-TZVP
UNRESTRICTED              TRUE
SCF_GUESS                 READ
SCF_ALGORITHM             DIIS
MAX_SCF_CYCLES            100
SCF_CONVERGENCE           8
SYM_IGNORE                TRUE
SYMMETRY                  FALSE
WAVEFUNCTION_ANALYSIS     FALSE
$end
--------------------------------------------------------------

             Standard Nuclear Orientation (Angstroms)
    I     Atom           X                Y                Z
 ----------------------------------------------------------------
    1      C       0.8684337770    -0.7799782567    -0.7567228684
    2      C       0.4984430428    -0.4930287430     0.6957719271
    3      C       0.9081439319     0.9818044597     0.6232952268
    4      C       0.1370719324     0.4875021639    -1.2534745688
    5      C      -1.2493003376     0.2845071784    -0.6588948319
    6      C      -1.0286768200    -0.5131273028     0.6542286098
    7      H       0.4410100908    -1.6903327444    -1.1837261223
    8      H       1.9404716400    -0.7608735649    -0.9560157759
    9      H       0.9509371885    -1.0661397841     1.5100903523
   10      H       1.9881285986     1.1300933142     0.6400295824
   11      H       0.3874404851     1.6870292766     1.2714836705
   12      H       0.7255765491     1.4175119355    -0.5514454168
   13      H      -1.8087843136    -0.2881598291    -1.4042349696
   14      H      -1.7876052466     1.2214702774    -0.5165602719
   15      H      -1.4101974947    -1.5352217635     0.6055050047
   16      H      -1.4812820236    -0.0314886171     1.5228484521
 ----------------------------------------------------------------

    2    -234.5160951411      8.19e-10  Convergence criterion met
 Total energy in the final basis set =     -234.5160951411
 Frequency:      -701.98                 280.40                 385.89
 Force Cnst:      0.5331                 0.0770                 0.1525
 Red. Mass:       1.8363                 1.6617                 1.7378
 IR Intens:       75.675                  0.958                  0.221
 Frequency:       455.60                 653.29                 675.79
 Force Cnst:      0.2122                 0.5206                 0.4285
 Red. Mass:       1.7351                 2.0702                 1.5927
 IR Intens:        0.795                  3.387                  2.716
 Frequency:       772.83                 820.03                 865.78
 Force Cnst:      1.2954                 0.6209                 1.0378
 Red. Mass:       3.6811                 1.5672                 2.3500
 IR Intens:       10.490                  2.982                  5.735
 Frequency:       902.03                 917.35                 945.02
 Force Cnst:      0.8361                 1.1823                 1.1285
 Red. Mass:       1.7441                 2.3846                 2.1448
 IR Intens:        2.920                  0.779                  0.244
 Frequency:       948.73                 979.57                 996.85
 Force Cnst:      1.1433                 0.8030                 1.2865
 Red. Mass:       2.1559                 1.4204                 2.1974
 IR Intens:        5.583                  0.250                  1.577
 Frequency:      1026.37                1072.48                1106.22
 Force Cnst:      1.0445                 1.0351                 1.4291
 Red. Mass:       1.6828                 1.5274                 1.9821
 IR Intens:        3.984                  0.969                  3.711
 Frequency:      1150.28                1168.61                1204.36
 Force Cnst:      0.9392                 1.0727                 1.0462
 Red. Mass:       1.2047                 1.3332                 1.2242
 IR Intens:        1.935                  2.084                 11.837
 Frequency:      1240.40                1262.69                1273.18
 Force Cnst:      1.1028                 1.6133                 1.4125
 Red. Mass:       1.2165                 1.7174                 1.4790
 IR Intens:        9.187                  6.649                  1.025
 Frequency:      1315.77                1326.03                1355.04
 Force Cnst:      1.6876                 1.5914                 1.8126
 Red. Mass:       1.6545                 1.5361                 1.6755
 IR Intens:        6.027                  4.951                  3.690
 Frequency:      1404.67                1461.35                1476.94
 Force Cnst:      1.3219                 1.3645                 1.3909
 Red. Mass:       1.1371                 1.0845                 1.0823
 IR Intens:        3.372                  8.850                  5.893
 Frequency:      1504.05                1525.99                2056.03
 Force Cnst:      1.4706                 1.5264                 2.6338
 Red. Mass:       1.1033                 1.1126                 1.0575
 IR Intens:        5.402                  0.900                  9.157
 Frequency:      3066.74                3073.90                3077.98
 Force Cnst:      5.9436                 5.9412                 5.9216
 Red. Mass:       1.0726                 1.0672                 1.0609
 IR Intens:       16.536                 59.114                 42.189
 Frequency:      3084.79                3093.44                3116.47
 Force Cnst:      5.9587                 5.9949                 6.3247
 Red. Mass:       1.0628                 1.0633                 1.1053
 IR Intens:       43.117                 16.271                  7.300
 Frequency:      3133.31                3136.50                3173.12
 Force Cnst:      6.3917                 6.4017                 6.5917
 Red. Mass:       1.1050                 1.1045                 1.1112
 IR Intens:       31.145                 26.670                 12.269

 STANDARD THERMODYNAMIC QUANTITIES AT   298.15 K  AND     1.00 ATM

   This Molecule has  1 Imaginary Frequencies
   Zero point vibrational energy:       89.328 kcal/mol

   Atom    1 Element C  Has Mass   12.00000
   Atom    2 Element C  Has Mass   12.00000
   Atom    3 Element C  Has Mass   12.00000
   Atom    4 Element C  Has Mass   12.00000
   Atom    5 Element C  Has Mass   12.00000
   Atom    6 Element C  Has Mass   12.00000
   Atom    7 Element H  Has Mass    1.00783
   Atom    8 Element H  Has Mass    1.00783
   Atom    9 Element H  Has Mass    1.00783
   Atom   10 Element H  Has Mass    1.00783
   Atom   11 Element H  Has Mass    1.00783
   Atom   12 Element H  Has Mass    1.00783
   Atom   13 Element H  Has Mass    1.00783
   Atom   14 Element H  Has Mass    1.00783
   Atom   15 Element H  Has Mass    1.00783
   Atom   16 Element H  Has Mass    1.00783
   Molecular Mass:    82.078300 amu
   Principal axes and moments of inertia in amu*Bohr^2:
                             1           2           3
    Eigenvalues --      357.62878   421.01023   472.59015
          X               0.97333    -0.18661    -0.13342
          Y               0.10738    -0.14335     0.98383
          Z               0.20272     0.97192     0.11949
   Rotational Symmetry Number is   1
   The Molecule is an Asymmetric Top
   Translational Enthalpy:        0.889 kcal/mol
   Rotational Enthalpy:           0.889 kcal/mol
   Vibrational Enthalpy:         90.592 kcal/mol
   gas constant (RT):             0.592 kcal/mol
   Translational Entropy:        39.129  cal/mol.K
   Rotational Entropy:           25.767  cal/mol.K
   Vibrational Entropy:           5.898  cal/mol.K

   Total Enthalpy:               92.962 kcal/mol
   Total Entropy:                70.794  cal/mol.K

 Total job time:  3252.02s(wall), 11741.56s(cpu)
        *  Thank you very much for using Q-Chem.  Have a nice day.  *
