 Q-Chem 5.1, Q-Chem, Inc., Pleasanton, CA (2018)
 Q-Chem 5.1.0 for Intel X86 EM64T Linux

User input:
--------------------------------------------------------------
$molecule
0 1
C  -1.0083063153  -0.0208340407  -0.0635165754
C   0.4863634476   0.0579269971   0.0039210305
N   1.2961644099  -0.9979750582   0.5235017522
O   0.6135169494  -1.9570498658   0.8959077178
N   1.8287528848   1.9710968842  -0.7610194564
N   1.1424852030   1.1130139170  -0.4231954516
H  -1.4519652615   0.9322944789  -0.3700116672
H  -1.3126106494  -0.8060703065  -0.7705485672
H  -1.3948096685  -0.3075950059   0.9241122173
$end

$rem
JOBTYPE                   OPT
METHOD                    wB97X-D3
BASIS                     def2-TZVP
UNRESTRICTED              TRUE
SCF_ALGORITHM             DIIS
MAX_SCF_CYCLES            100
SCF_CONVERGENCE           8
SYM_IGNORE                TRUE
SYMMETRY                  FALSE
GEOM_OPT_MAX_CYCLES       100
GEOM_OPT_TOL_GRADIENT     100
GEOM_OPT_TOL_DISPLACEMENT 400
GEOM_OPT_TOL_ENERGY       33
WAVEFUNCTION_ANALYSIS     FALSE
$end

--------------------------------------------------------------

   17    -317.3796533479      5.29e-09  Convergence criterion met
 Total energy in the final basis set =     -317.3796533479
   14    -317.3844196736      6.51e-09  Convergence criterion met
 Total energy in the final basis set =     -317.3844196736
   14    -317.3848684454      6.92e-09  Convergence criterion met
 Total energy in the final basis set =     -317.3848684454
   14    -317.3850944426      5.34e-09  Convergence criterion met
 Total energy in the final basis set =     -317.3850944426
   14    -317.3851811736      6.24e-09  Convergence criterion met
 Total energy in the final basis set =     -317.3851811736
   14    -317.3852134259      7.93e-09  Convergence criterion met
 Total energy in the final basis set =     -317.3852134259
   13    -317.3852481059      8.94e-09  Convergence criterion met
 Total energy in the final basis set =     -317.3852481059
   12    -317.3852560501      8.79e-09  Convergence criterion met
   12    -317.3852609503      7.87e-09  Convergence criterion met
 Total energy in the final basis set =     -317.3852609503
   11    -317.3852637043      8.63e-09  Convergence criterion met
 Total energy in the final basis set =     -317.3852637043
   12    -317.3852683227      1.00e-08  Convergence criterion met
 Total energy in the final basis set =     -317.3852683227
   12    -317.3852717014      8.41e-09  Convergence criterion met
 Total energy in the final basis set =     -317.3852717014
   12    -317.3852732998      5.92e-09  Convergence criterion met
 Total energy in the final basis set =     -317.3852732998
   10    -317.3852734504      5.23e-09  Convergence criterion met
 Total energy in the final basis set =     -317.3852734504
 Final energy is   -317.385273450433
 **  OPTIMIZATION CONVERGED  **
 Total job time:  492.97s(wall), 7119.78s(cpu)
        *  Thank you very much for using Q-Chem.  Have a nice day.  *
 Q-Chem 5.1, Q-Chem, Inc., Pleasanton, CA (2018)
 Q-Chem 5.1.0 for Intel X86 EM64T Linux

User input:
--------------------------------------------------------------

$molecule
read
$end

$rem
JOBTYPE                   FREQ
METHOD                    wB97X-D3
BASIS                     def2-TZVP
UNRESTRICTED              TRUE
SCF_GUESS                 READ
SCF_ALGORITHM             DIIS
MAX_SCF_CYCLES            100
SCF_CONVERGENCE           8
SYM_IGNORE                TRUE
SYMMETRY                  FALSE
WAVEFUNCTION_ANALYSIS     FALSE
$end
--------------------------------------------------------------

             Standard Nuclear Orientation (Angstroms)
    I     Atom           X                Y                Z
 ----------------------------------------------------------------
    1      C      -1.0107832954    -0.0114062903    -0.0609503578
    2      C       0.4779775908     0.0191372722     0.0138980905
    3      N       1.2973785630    -0.9929511851     0.4692528168
    4      O       0.6928138033    -1.9844721171     0.8337456285
    5      N       1.7456054883     1.9701328395    -0.6976420248
    6      N       1.1641983265     1.0762694499    -0.3716107762
    7      H      -1.4020456259     0.9133626349    -0.4821490996
    8      H      -1.3326700156    -0.8499053242    -0.6803203650
    9      H      -1.4328838350    -0.1553592798     0.9349270876
 ----------------------------------------------------------------

    2    -317.3852734572      2.39e-09  Convergence criterion met
 Total energy in the final basis set =     -317.3852734572
 Frequency:       110.17                 193.07                 197.25
 Force Cnst:      0.0075                 0.1656                 0.2055
 Red. Mass:       1.0465                 7.5403                 8.9635
 IR Intens:        0.035                  0.326                  5.239
 Frequency:       268.57                 369.36                 566.92
 Force Cnst:      0.1491                 0.4860                 2.4764
 Red. Mass:       3.5075                 6.0460                13.0773
 IR Intens:        4.296                  0.136                  2.847
 Frequency:       590.73                 624.43                 824.79
 Force Cnst:      1.3014                 3.1350                 1.9511
 Red. Mass:       6.3300                13.6465                 4.8679
 IR Intens:       10.771                  1.229                 31.278
 Frequency:       993.38                1059.49                1251.60
 Force Cnst:      1.0062                 0.8863                 4.6085
 Red. Mass:       1.7305                 1.3401                 4.9932
 IR Intens:      136.592                  0.534                412.620
 Frequency:      1398.26                1430.70                1473.69
 Force Cnst:      3.2033                 1.9627                 1.3314
 Red. Mass:       2.7808                 1.6275                 1.0405
 IR Intens:        3.687                  3.475                 11.013
 Frequency:      1500.80                1587.06                2277.23
 Force Cnst:      1.4691                19.1606                42.5163
 Red. Mass:       1.1070                12.9114                13.9152
 IR Intens:       36.890                263.018                650.097
 Frequency:      3074.25                3143.21                3172.29
 Force Cnst:      5.7649                 6.4189                 6.5400
 Red. Mass:       1.0353                 1.1027                 1.1030
 IR Intens:       10.428                  4.927                  3.302

 STANDARD THERMODYNAMIC QUANTITIES AT   298.15 K  AND     1.00 ATM

   This Molecule has  0 Imaginary Frequencies
   Zero point vibrational energy:       37.322 kcal/mol

   Atom    1 Element C  Has Mass   12.00000
   Atom    2 Element C  Has Mass   12.00000
   Atom    3 Element N  Has Mass   14.00307
   Atom    4 Element O  Has Mass   15.99491
   Atom    5 Element N  Has Mass   14.00307
   Atom    6 Element N  Has Mass   14.00307
   Atom    7 Element H  Has Mass    1.00783
   Atom    8 Element H  Has Mass    1.00783
   Atom    9 Element H  Has Mass    1.00783
   Molecular Mass:    85.027610 amu
   Principal axes and moments of inertia in amu*Bohr^2:
                             1           2           3
    Eigenvalues --      236.60975   645.59861   871.04622
          X               0.25980     0.96414    -0.05420
          Y               0.90091    -0.22179     0.37307
          Z              -0.34767     0.14576     0.92622
   Rotational Symmetry Number is   1
   The Molecule is an Asymmetric Top
   Translational Enthalpy:        0.889 kcal/mol
   Rotational Enthalpy:           0.889 kcal/mol
   Vibrational Enthalpy:         39.409 kcal/mol
   gas constant (RT):             0.592 kcal/mol
   Translational Entropy:        39.234  cal/mol.K
   Rotational Entropy:           26.389  cal/mol.K
   Vibrational Entropy:          12.154  cal/mol.K

   Total Enthalpy:               41.778 kcal/mol
   Total Entropy:                77.778  cal/mol.K

 Total job time:  1074.34s(wall), 3697.20s(cpu)
        *  Thank you very much for using Q-Chem.  Have a nice day.  *
