 Q-Chem 5.1, Q-Chem, Inc., Pleasanton, CA (2018)
 Q-Chem 5.1.0 for Intel X86 EM64T Linux

User input:
--------------------------------------------------------------
$molecule
0 1
C  -1.3171631705   0.0093228375   0.0311053460
C   0.1724834212  -0.0303689468   0.0232693275
N   0.9160042938  -0.9139532390   0.6548382848
O   2.1878517755  -0.6056314007   0.3841382500
N   2.1719088305   0.5993205833  -0.5094473402
N   0.9670254116   0.8747518113  -0.6750759678
H  -1.6786788857   0.9547176106   0.4578505140
H  -1.7095673715  -0.0658001180  -0.9921348601
H  -1.7098643049  -0.8223591383   0.6254564458
$end

$rem
JOBTYPE                   OPT
METHOD                    wB97X-D3
BASIS                     def2-TZVP
UNRESTRICTED              TRUE
SCF_ALGORITHM             DIIS
MAX_SCF_CYCLES            100
SCF_CONVERGENCE           8
SYM_IGNORE                TRUE
SYMMETRY                  FALSE
GEOM_OPT_MAX_CYCLES       100
GEOM_OPT_TOL_GRADIENT     100
GEOM_OPT_TOL_DISPLACEMENT 400
GEOM_OPT_TOL_ENERGY       33
WAVEFUNCTION_ANALYSIS     FALSE
$end

--------------------------------------------------------------

   14    -317.4226671027      6.09e-09  Convergence criterion met
 Total energy in the final basis set =     -317.4226671027
   13    -317.4272906511      4.79e-09  Convergence criterion met
 Total energy in the final basis set =     -317.4272906511
   12    -317.4286089655      8.66e-09  Convergence criterion met
 Total energy in the final basis set =     -317.4286089655
   12    -317.4290711485      6.07e-09  Convergence criterion met
 Total energy in the final basis set =     -317.4290711485
   13    -317.4286114890      3.28e-09  Convergence criterion met
 Total energy in the final basis set =     -317.4286114890
   13    -317.4293671369      2.47e-09  Convergence criterion met
 Total energy in the final basis set =     -317.4293671369
   11    -317.4293724421      5.51e-09  Convergence criterion met
 Total energy in the final basis set =     -317.4293724421
   10    -317.4293896347      7.56e-09  Convergence criterion met
 Total energy in the final basis set =     -317.4293896347
   10    -317.4293892989      4.75e-09  Convergence criterion met
 Total energy in the final basis set =     -317.4293892989
    9    -317.4293908061      9.88e-09  Convergence criterion met
 Total energy in the final basis set =     -317.4293908061
    8    -317.4293908608      4.25e-09  Convergence criterion met
 Total energy in the final basis set =     -317.4293908608
 Final energy is   -317.429390860808
 **  OPTIMIZATION CONVERGED  **
 Total job time:  357.41s(wall), 3335.59s(cpu)
        *  Thank you very much for using Q-Chem.  Have a nice day.  *
 Q-Chem 5.1, Q-Chem, Inc., Pleasanton, CA (2018)
 Q-Chem 5.1.0 for Intel X86 EM64T Linux

User input:
--------------------------------------------------------------

$molecule
read
$end

$rem
JOBTYPE                   FREQ
METHOD                    wB97X-D3
BASIS                     def2-TZVP
UNRESTRICTED              TRUE
SCF_GUESS                 READ
SCF_ALGORITHM             DIIS
MAX_SCF_CYCLES            100
SCF_CONVERGENCE           8
SYM_IGNORE                TRUE
SYMMETRY                  FALSE
WAVEFUNCTION_ANALYSIS     FALSE
$end
--------------------------------------------------------------

             Standard Nuclear Orientation (Angstroms)
    I     Atom           X                Y                Z
 ----------------------------------------------------------------
    1      C      -1.3087130884     0.0067985166     0.0318426798
    2      C       0.1715480651    -0.0344224554     0.0209553648
    3      N       0.9054482267    -0.9000880735     0.6395174456
    4      O       2.1682532899    -0.5483265793     0.3436668943
    5      N       2.1499304597     0.5449353590    -0.4630997678
    6      N       0.9613263854     0.8654866360    -0.6659878169
    7      H      -1.6558442863     0.9504645739     0.4530375830
    8      H      -1.6933601339    -0.0679975904    -0.9853923470
    9      H      -1.6985889183    -0.8168503870     0.6254599642
 ----------------------------------------------------------------

    2    -317.4293908629      3.67e-09  Convergence criterion met
 Total energy in the final basis set =     -317.4293908629
 Frequency:       117.70                 287.96                 344.90
 Force Cnst:      0.0088                 0.1891                 0.2158
 Red. Mass:       1.0730                 3.8708                 3.0786
 IR Intens:        0.074                  0.670                  1.611
 Frequency:       687.51                 700.62                 739.44
 Force Cnst:      3.0299                 1.3114                 1.8523
 Red. Mass:      10.8796                 4.5344                 5.7498
 IR Intens:        1.906                 10.605                  0.852
 Frequency:       843.99                 974.43                1028.68
 Force Cnst:      6.2769                 2.2436                 1.3481
 Red. Mass:      14.9561                 4.0105                 2.1622
 IR Intens:       18.079                 11.736                  5.957
 Frequency:      1080.39                1091.29                1137.09
 Force Cnst:      1.0840                 9.7516                 6.2002
 Red. Mass:       1.5762                13.8978                 8.1390
 IR Intens:        3.116                  1.085                 23.540
 Frequency:      1344.25                1425.55                1480.51
 Force Cnst:      4.4882                 1.6850                 1.3451
 Red. Mass:       4.2156                 1.4073                 1.0416
 IR Intens:       15.114                  9.534                 10.303
 Frequency:      1489.10                1525.98                1660.01
 Force Cnst:      1.4366                13.5651                14.8069
 Red. Mass:       1.0996                 9.8873                 9.1200
 IR Intens:       22.417                 14.228                 39.181
 Frequency:      3087.13                3159.86                3186.92
 Force Cnst:      5.8207                 6.4816                 6.6037
 Red. Mass:       1.0366                 1.1018                 1.1036
 IR Intens:        3.176                  2.531                  1.659

 STANDARD THERMODYNAMIC QUANTITIES AT   298.15 K  AND     1.00 ATM

   This Molecule has  0 Imaginary Frequencies
   Zero point vibrational energy:       39.161 kcal/mol

   Atom    1 Element C  Has Mass   12.00000
   Atom    2 Element C  Has Mass   12.00000
   Atom    3 Element N  Has Mass   14.00307
   Atom    4 Element O  Has Mass   15.99491
   Atom    5 Element N  Has Mass   14.00307
   Atom    6 Element N  Has Mass   14.00307
   Atom    7 Element H  Has Mass    1.00783
   Atom    8 Element H  Has Mass    1.00783
   Atom    9 Element H  Has Mass    1.00783
   Molecular Mass:    85.027610 amu
   Principal axes and moments of inertia in amu*Bohr^2:
                             1           2           3
    Eigenvalues --      181.07552   479.08336   648.97396
          X               0.99968    -0.01116     0.02271
          Y              -0.00451     0.80453     0.59390
          Z              -0.02490    -0.59381     0.80422
   Rotational Symmetry Number is   1
   The Molecule is an Asymmetric Top
   Translational Enthalpy:        0.889 kcal/mol
   Rotational Enthalpy:           0.889 kcal/mol
   Vibrational Enthalpy:         40.466 kcal/mol
   gas constant (RT):             0.592 kcal/mol
   Translational Entropy:        39.234  cal/mol.K
   Rotational Entropy:           25.535  cal/mol.K
   Vibrational Entropy:           7.330  cal/mol.K

   Total Enthalpy:               42.836 kcal/mol
   Total Entropy:                72.099  cal/mol.K

 Total job time:  1669.53s(wall), 3046.34s(cpu)
        *  Thank you very much for using Q-Chem.  Have a nice day.  *
