 Q-Chem 5.1, Q-Chem, Inc., Pleasanton, CA (2018)
 Q-Chem 5.1.0 for Intel X86 EM64T Linux

User input:
--------------------------------------------------------------
$molecule
0 1
C  -1.1282578210   0.0517219139  -0.0028455136
C   0.3694145378   0.0228747461  -0.0673094051
N   1.0267506369  -1.0593300013   0.8606001068
O   1.3306695013  -2.0548258570   0.2686703613
N   1.8786112458   1.8378123555  -0.7092308553
N   1.1256628777   1.0093350454  -0.3980358893
H  -1.5071669131   0.9733428585  -0.4621182047
H  -1.5660338113  -0.8041829161  -0.5382678693
H  -1.4869792541   0.0189938551   1.0397872694
$end

$rem
JOBTYPE                   FREQ
METHOD                    wB97X-D3
BASIS                     def2-TZVP
UNRESTRICTED              TRUE
SCF_ALGORITHM             DIIS
MAX_SCF_CYCLES            100
SCF_CONVERGENCE           8
SYM_IGNORE                TRUE
SYMMETRY                  FALSE
WAVEFUNCTION_ANALYSIS     FALSE
$end

--------------------------------------------------------------

   17    -317.3432181657      9.70e-09  Convergence criterion met
 Total energy in the final basis set =     -317.3432181657
 Frequency:       -99.12                 217.37                 266.08
 Force Cnst:      0.0593                 0.1613                 0.2498
 Red. Mass:      10.2516                 5.7950                 5.9886
 IR Intens:        0.065                  6.321                  4.528
 Frequency:       290.79                 309.93                 473.28
 Force Cnst:      0.0575                 0.1745                 1.1860
 Red. Mass:       1.1539                 3.0838                 8.9865
 IR Intens:        0.073                  0.990                 15.561
 Frequency:       587.09                 653.02                 760.14
 Force Cnst:      2.7770                 1.7160                 2.8963
 Red. Mass:      13.6742                 6.8299                 8.5077
 IR Intens:        7.981                  7.949                 24.511
 Frequency:       945.53                1078.47                1133.32
 Force Cnst:      1.2850                 0.9101                 1.6730
 Red. Mass:       2.4396                 1.3281                 2.2108
 IR Intens:       37.186                  3.427                  1.356
 Frequency:      1387.83                1435.45                1485.84
 Force Cnst:      5.8954                 1.5841                 1.3569
 Red. Mass:       5.1950                 1.3049                 1.0431
 IR Intens:        3.273                  7.358                 11.583
 Frequency:      1515.67                1620.20                1990.26
 Force Cnst:      1.4436                21.8481                31.1836
 Red. Mass:       1.0665                14.1262                13.3616
 IR Intens:       16.765                228.657                553.133
 Frequency:      2976.25                3035.61                3086.35
 Force Cnst:      5.4279                 5.9703                 6.1711
 Red. Mass:       1.0400                 1.0997                 1.0996
 IR Intens:       26.373                 10.244                  4.075
 Total job time:  1111.82s(wall), 4232.80s(cpu)
        *  Thank you very much for using Q-Chem.  Have a nice day.  *
 Q-Chem 5.1, Q-Chem, Inc., Pleasanton, CA (2018)
 Q-Chem 5.1.0 for Intel X86 EM64T Linux

User input:
--------------------------------------------------------------

$molecule
read
$end

$rem
JOBTYPE                   TS
METHOD                    wB97X-D3
BASIS                     def2-TZVP
UNRESTRICTED              TRUE
SCF_GUESS                 READ
GEOM_OPT_HESSIAN          READ
SCF_ALGORITHM             DIIS
MAX_SCF_CYCLES            100
SCF_CONVERGENCE           8
SYM_IGNORE                TRUE
SYMMETRY                  FALSE
GEOM_OPT_MAX_CYCLES       100
GEOM_OPT_TOL_GRADIENT     100
GEOM_OPT_TOL_DISPLACEMENT 400
GEOM_OPT_TOL_ENERGY       33
WAVEFUNCTION_ANALYSIS     FALSE
$end

--------------------------------------------------------------

    2    -317.3432181585      2.56e-09  Convergence criterion met
 Total energy in the final basis set =     -317.3432181585
   17    -317.3480108802      4.82e-09  Convergence criterion met
 Total energy in the final basis set =     -317.3480108802
   16    -317.3473934904      5.37e-09  Convergence criterion met
 Total energy in the final basis set =     -317.3473934904
   14    -317.3474474793      5.35e-09  Convergence criterion met
 Total energy in the final basis set =     -317.3474474793
   15    -317.3474756900      3.83e-09  Convergence criterion met
 Total energy in the final basis set =     -317.3474756900
   14    -317.3475054473      5.67e-09  Convergence criterion met
 Total energy in the final basis set =     -317.3475054473
   14    -317.3474649104      9.88e-09  Convergence criterion met
 Total energy in the final basis set =     -317.3474649104
   14    -317.3475246796      7.28e-09  Convergence criterion met
 Total energy in the final basis set =     -317.3475246796
   11    -317.3475315690      9.23e-09  Convergence criterion met
 Total energy in the final basis set =     -317.3475315690
   13    -317.3475474909      8.81e-09  Convergence criterion met
 Total energy in the final basis set =     -317.3475474909
   13    -317.3475504730      5.79e-09  Convergence criterion met
 Total energy in the final basis set =     -317.3475504730
   10    -317.3475506858      7.61e-09  Convergence criterion met
 Total energy in the final basis set =     -317.3475506858
 Final energy is   -317.347550685799
 **  OPTIMIZATION CONVERGED  **
        *  Thank you very much for using Q-Chem.  Have a nice day.  *
 Q-Chem 5.1, Q-Chem, Inc., Pleasanton, CA (2018)
 Q-Chem 5.1.0 for Intel X86 EM64T Linux

User input:
--------------------------------------------------------------

$molecule
read
$end

$rem
JOBTYPE                   FREQ
METHOD                    wB97X-D3
BASIS                     def2-TZVP
UNRESTRICTED              TRUE
SCF_GUESS                 READ
SCF_ALGORITHM             DIIS
MAX_SCF_CYCLES            100
SCF_CONVERGENCE           8
SYM_IGNORE                TRUE
SYMMETRY                  FALSE
WAVEFUNCTION_ANALYSIS     FALSE
$end
--------------------------------------------------------------

             Standard Nuclear Orientation (Angstroms)
    I     Atom           X                Y                Z
 ----------------------------------------------------------------
    1      C      -1.1232845669     0.0557568927     0.0087156096
    2      C       0.3666246970     0.0317176093     0.0423320323
    3      N       1.0392288480    -1.0364534432     0.8503488604
    4      O       1.3238626131    -1.9927962786     0.2107284387
    5      N       1.8363786545     1.7721959818    -0.7464270789
    6      N       1.1281297882     0.9654300481    -0.3768412963
    7      H      -1.4711008464     0.9733785932    -0.4638926543
    8      H      -1.5206206602    -0.7917625963    -0.5542465690
    9      H      -1.5365475273     0.0182751930     1.0205326576
 ----------------------------------------------------------------

    2    -317.3475506930      2.79e-09  Convergence criterion met
 Total energy in the final basis set =     -317.3475506930
 Frequency:      -295.47                  95.01                 133.00
 Force Cnst:      0.5987                 0.0095                 0.0182
 Red. Mass:      11.6390                 1.7789                 1.7464
 IR Intens:        0.447                  0.970                  1.301
 Frequency:       193.55                 280.44                 509.56
 Force Cnst:      0.1647                 0.1598                 1.9245
 Red. Mass:       7.4642                 3.4476                12.5797
 IR Intens:        4.359                  0.786                  0.874
 Frequency:       536.22                 647.23                 800.52
 Force Cnst:      2.0361                 1.3959                 2.7102
 Red. Mass:      12.0190                 5.6556                 7.1781
 IR Intens:        8.654                  7.507                 18.968
 Frequency:       975.53                1062.02                1185.74
 Force Cnst:      0.9678                 0.9071                 3.1399
 Red. Mass:       1.7260                 1.3650                 3.7904
 IR Intens:       31.008                  1.528                  4.752
 Frequency:      1418.23                1447.56                1476.36
 Force Cnst:      1.4444                 5.3168                 1.3394
 Red. Mass:       1.2189                 4.3065                 1.0430
 IR Intens:        4.716                  3.509                 11.680
 Frequency:      1512.84                1720.94                2190.16
 Force Cnst:      1.6102                25.5480                38.5200
 Red. Mass:       1.1941                14.6412                13.6297
 IR Intens:       17.421                158.672                594.304
 Frequency:      3050.32                3112.04                3160.33
 Force Cnst:      5.6856                 6.2919                 6.4734
 Red. Mass:       1.0371                 1.1027                 1.1001
 IR Intens:       27.515                 10.404                  4.286

 STANDARD THERMODYNAMIC QUANTITIES AT   298.15 K  AND     1.00 ATM

   This Molecule has  1 Imaginary Frequencies
   Zero point vibrational energy:       36.465 kcal/mol

   Atom    1 Element C  Has Mass   12.00000
   Atom    2 Element C  Has Mass   12.00000
   Atom    3 Element N  Has Mass   14.00307
   Atom    4 Element O  Has Mass   15.99491
   Atom    5 Element N  Has Mass   14.00307
   Atom    6 Element N  Has Mass   14.00307
   Atom    7 Element H  Has Mass    1.00783
   Atom    8 Element H  Has Mass    1.00783
   Atom    9 Element H  Has Mass    1.00783
   Molecular Mass:    85.027610 amu
   Principal axes and moments of inertia in amu*Bohr^2:
                             1           2           3
    Eigenvalues --      324.57192   571.31206   840.99850
          X               0.14606     0.98659     0.07278
          Y               0.93723    -0.16155     0.30903
          Z              -0.31664    -0.02308     0.94826
   Rotational Symmetry Number is   1
   The Molecule is an Asymmetric Top
   Translational Enthalpy:        0.889 kcal/mol
   Rotational Enthalpy:           0.889 kcal/mol
   Vibrational Enthalpy:         38.458 kcal/mol
   gas constant (RT):             0.592 kcal/mol
   Translational Entropy:        39.234  cal/mol.K
   Rotational Entropy:           26.547  cal/mol.K
   Vibrational Entropy:          12.252  cal/mol.K

   Total Enthalpy:               40.828 kcal/mol
   Total Entropy:                78.033  cal/mol.K

 Total job time:  1125.90s(wall), 3914.52s(cpu)
        *  Thank you very much for using Q-Chem.  Have a nice day.  *
