 Q-Chem 5.1, Q-Chem, Inc., Pleasanton, CA (2018)
 Q-Chem 5.1.0 for Intel X86 EM64T Linux

User input:
--------------------------------------------------------------
$molecule
0 1
C   1.8572876898   1.0856565167   0.7352910681
O   0.5074274054   0.8007640546   1.0621466180
C  -0.6946743711  -1.1803063184  -1.0992345673
C  -1.9213566342  -0.7094206114  -0.4389948233
O  -1.0718992537   0.2146231954  -1.1577141997
H   2.0055506062   2.1215443980   0.3751564363
H   2.4472700764   0.9623137864   1.6536744710
H   2.2749214578   0.4010626951  -0.0289220446
H  -0.7603365165  -1.7100121252  -2.0523247219
H   0.1838603972  -1.3904293864  -0.4856555433
H  -2.8930037716  -0.8896469801  -0.9050001287
H  -1.9219288780  -0.5835584392   0.6458594983
H  -0.0179062076   0.8785162147   0.2340359371
$end

$rem
JOBTYPE                   OPT
METHOD                    wB97X-D3
BASIS                     def2-TZVP
UNRESTRICTED              TRUE
SCF_ALGORITHM             DIIS
MAX_SCF_CYCLES            100
SCF_CONVERGENCE           8
SYM_IGNORE                TRUE
SYMMETRY                  FALSE
GEOM_OPT_MAX_CYCLES       100
GEOM_OPT_TOL_GRADIENT     100
GEOM_OPT_TOL_DISPLACEMENT 400
GEOM_OPT_TOL_ENERGY       33
WAVEFUNCTION_ANALYSIS     FALSE
$end

--------------------------------------------------------------

   12    -269.5505460440      8.38e-09  Convergence criterion met
 Total energy in the final basis set =     -269.5505460440
   11    -269.5518868203      4.62e-09  Convergence criterion met
 Total energy in the final basis set =     -269.5518868203
   10    -269.5520255125      9.86e-09  Convergence criterion met
 Total energy in the final basis set =     -269.5520255125
   10    -269.5520846299      7.04e-09  Convergence criterion met
 Total energy in the final basis set =     -269.5520846299
   10    -269.5521017788      3.03e-09  Convergence criterion met
 Total energy in the final basis set =     -269.5521017788
   10    -269.5521118764      3.30e-09  Convergence criterion met
 Total energy in the final basis set =     -269.5521118764
    9    -269.5521155806      6.63e-09  Convergence criterion met
 Total energy in the final basis set =     -269.5521155806
   10    -269.5521201865      3.47e-09  Convergence criterion met
   10    -269.5521231982      3.82e-09  Convergence criterion met
 Total energy in the final basis set =     -269.5521231982
    9    -269.5521248507      8.47e-09  Convergence criterion met
 Total energy in the final basis set =     -269.5521248507
    9    -269.5521262379      6.11e-09  Convergence criterion met
 Total energy in the final basis set =     -269.5521262379
    9    -269.5521276844      5.33e-09  Convergence criterion met
 Total energy in the final basis set =     -269.5521276844
    9    -269.5521284344      3.42e-09  Convergence criterion met
 Total energy in the final basis set =     -269.5521284344
    8    -269.5521287123      4.36e-09  Convergence criterion met
 Total energy in the final basis set =     -269.5521287123
 Final energy is   -269.552128712268
 **  OPTIMIZATION CONVERGED  **
 Total job time:  357.60s(wall), 4719.92s(cpu)
        *  Thank you very much for using Q-Chem.  Have a nice day.  *
 Q-Chem 5.1, Q-Chem, Inc., Pleasanton, CA (2018)
 Q-Chem 5.1.0 for Intel X86 EM64T Linux

User input:
--------------------------------------------------------------

$molecule
read
$end

$rem
JOBTYPE                   FREQ
METHOD                    wB97X-D3
BASIS                     def2-TZVP
UNRESTRICTED              TRUE
SCF_GUESS                 READ
SCF_ALGORITHM             DIIS
MAX_SCF_CYCLES            100
SCF_CONVERGENCE           8
SYM_IGNORE                TRUE
SYMMETRY                  FALSE
WAVEFUNCTION_ANALYSIS     FALSE
$end
--------------------------------------------------------------

             Standard Nuclear Orientation (Angstroms)
    I     Atom           X                Y                Z
 ----------------------------------------------------------------
    1      C       1.9358007774     1.1986086301     0.8054714213
    2      O       0.6404003528     0.6884427160     1.0130030073
    3      C      -0.8274210917    -1.3016707249    -1.1560290645
    4      C      -1.9532679903    -0.6919868945    -0.4606093551
    5      O      -1.0270312754     0.1076013666    -1.1891193829
    6      H       1.9216151349     2.2488326345     0.4912142092
    7      H       2.4708295401     1.1361039656     1.7534808350
    8      H       2.4957967037     0.6217020195     0.0591440348
    9      H      -0.9872834925    -1.8045559491    -2.1040045777
   10      H       0.0334288362    -1.6254590962    -0.5795532818
   11      H      -2.9456096936    -0.7428981676    -0.8962016444
   12      H      -1.9073586797    -0.5744191812     0.6174861636
   13      H       0.1453128781     0.7408056812     0.1840356351
 ----------------------------------------------------------------

    2    -269.5521287124      1.55e-09  Convergence criterion met
 Total energy in the final basis set =     -269.5521287124
 Frequency:        34.04                  66.53                  83.67
 Force Cnst:      0.0019                 0.0058                 0.0070
 Red. Mass:       2.7968                 2.2408                 1.6975
 IR Intens:        6.795                  6.775                  9.715
 Frequency:       120.30                 122.65                 210.11
 Force Cnst:      0.0156                 0.0279                 0.1230
 Red. Mass:       1.8250                 3.1479                 4.7295
 IR Intens:        4.992                  3.883                 10.339
 Frequency:       643.21                 832.55                 897.79
 Force Cnst:      0.2544                 0.4186                 4.5258
 Red. Mass:       1.0439                 1.0250                 9.5300
 IR Intens:      135.843                  1.281                 12.584
 Frequency:       928.94                1070.74                1108.10
 Force Cnst:      1.8295                 0.6932                 2.8769
 Red. Mass:       3.5983                 1.0262                 3.9766
 IR Intens:       85.784                  0.049                128.647
 Frequency:      1132.57                1177.32                1185.89
 Force Cnst:      0.9854                 1.1888                 1.1588
 Red. Mass:       1.3038                 1.4556                 1.3985
 IR Intens:        2.425                  0.425                  0.289
 Frequency:      1189.25                1191.88                1193.53
 Force Cnst:      1.0617                 1.0886                 1.0875
 Red. Mass:       1.2741                 1.3006                 1.2957
 IR Intens:        1.047                  2.184                  3.336
 Frequency:      1331.00                1437.62                1491.77
 Force Cnst:      2.3777                 1.4684                 1.4902
 Red. Mass:       2.2780                 1.2058                 1.1366
 IR Intens:       21.128                 60.435                  6.148
 Frequency:      1501.39                1504.62                1519.05
 Force Cnst:      1.4276                 1.3966                 1.4315
 Red. Mass:       1.0749                 1.0471                 1.0530
 IR Intens:        0.595                  3.686                  2.156
 Frequency:      1547.59                3009.37                3062.76
 Force Cnst:      1.9729                 5.5322                 6.1006
 Red. Mass:       1.3981                 1.0368                 1.1038
 IR Intens:        2.544                 71.761                 64.119
 Frequency:      3127.85                3131.30                3135.48
 Force Cnst:      6.0250                 6.3455                 6.1355
 Red. Mass:       1.0452                 1.0984                 1.0592
 IR Intens:       22.627                 39.742                 13.982
 Frequency:      3218.66                3232.28                3730.57
 Force Cnst:      6.8479                 6.9036                 8.7571
 Red. Mass:       1.1219                 1.1215                 1.0680
 IR Intens:        0.378                 20.026                408.466

 STANDARD THERMODYNAMIC QUANTITIES AT   298.15 K  AND     1.00 ATM

   This Molecule has  0 Imaginary Frequencies
   Zero point vibrational energy:       70.293 kcal/mol

   Atom    1 Element C  Has Mass   12.00000
   Atom    2 Element O  Has Mass   15.99491
   Atom    3 Element C  Has Mass   12.00000
   Atom    4 Element C  Has Mass   12.00000
   Atom    5 Element O  Has Mass   15.99491
   Atom    6 Element H  Has Mass    1.00783
   Atom    7 Element H  Has Mass    1.00783
   Atom    8 Element H  Has Mass    1.00783
   Atom    9 Element H  Has Mass    1.00783
   Atom   10 Element H  Has Mass    1.00783
   Atom   11 Element H  Has Mass    1.00783
   Atom   12 Element H  Has Mass    1.00783
   Atom   13 Element H  Has Mass    1.00783
   Molecular Mass:    76.052460 amu
   Principal axes and moments of inertia in amu*Bohr^2:
                             1           2           3
    Eigenvalues --      149.98967   932.56022   964.64694
          X               0.75159    -0.63282    -0.18615
          Y               0.45785     0.29733     0.83784
          Z               0.47485     0.71494    -0.51321
   Rotational Symmetry Number is   1
   The Molecule is an Asymmetric Top
   Translational Enthalpy:        0.889 kcal/mol
   Rotational Enthalpy:           0.889 kcal/mol
   Vibrational Enthalpy:         73.356 kcal/mol
   gas constant (RT):             0.592 kcal/mol
   Translational Entropy:        38.902  cal/mol.K
   Rotational Entropy:           26.403  cal/mol.K
   Vibrational Entropy:          23.158  cal/mol.K

   Total Enthalpy:               75.726 kcal/mol
   Total Entropy:                88.463  cal/mol.K

 Total job time:  1119.50s(wall), 3896.57s(cpu)
        *  Thank you very much for using Q-Chem.  Have a nice day.  *
