 Q-Chem 5.1, Q-Chem, Inc., Pleasanton, CA (2018)
 Q-Chem 5.1.0 for Intel X86 EM64T Linux

User input:
--------------------------------------------------------------
$molecule
0 1
C   1.7111978834   0.9235326995   0.3359952851
O   0.4853509855   0.4907393430   0.9153037442
C  -0.4288364041  -1.1257844457  -0.3527084620
C  -1.7697616201  -0.5660321947  -0.6075883954
O  -1.2757815407   0.7291882049  -0.7786352566
H   1.9860105449   1.9163417304   0.7304251369
H   2.5034690089   0.2129828182   0.6099645091
H   1.6449355491   0.9894673908  -0.7624102499
H   0.2766344670  -1.1157278649  -1.1799631561
H  -0.1325407614  -1.6403419934   0.5574217210
H  -2.2523003147  -0.9872300882  -1.5130781691
H  -2.4606152021  -0.7036231265   0.2474893107
H  -0.2970915958   0.8737865267   0.3292249820
$end

$rem
JOBTYPE                   FREQ
METHOD                    wB97X-D3
BASIS                     def2-TZVP
UNRESTRICTED              TRUE
SCF_ALGORITHM             DIIS
MAX_SCF_CYCLES            100
SCF_CONVERGENCE           8
SYM_IGNORE                TRUE
SYMMETRY                  FALSE
WAVEFUNCTION_ANALYSIS     FALSE
$end

--------------------------------------------------------------

   16    -269.4602948115      3.15e-09  Convergence criterion met
 Total energy in the final basis set =     -269.4602948115
 Frequency:      -589.62                 185.44                 197.14
 Force Cnst:      0.7211                 0.0470                 0.0703
 Red. Mass:       3.5204                 2.3204                 3.0722
 IR Intens:       72.461                  1.875                 12.414
 Frequency:       220.37                 281.99                 415.40
 Force Cnst:      0.0735                 0.0520                 0.5202
 Red. Mass:       2.5687                 1.1103                 5.1167
 IR Intens:        5.439                  1.277                131.970
 Frequency:       430.19                 758.22                 816.80
 Force Cnst:      0.6855                 0.3810                 0.4251
 Red. Mass:       6.2872                 1.1248                 1.0815
 IR Intens:       56.035                  1.247                  5.810
 Frequency:       957.29                1040.41                1047.20
 Force Cnst:      1.2032                 1.9008                 1.1031
 Red. Mass:       2.2285                 2.9804                 1.7073
 IR Intens:       48.251                 57.421                259.133
 Frequency:      1100.89                1143.18                1161.16
 Force Cnst:      1.3081                 1.4816                 1.1920
 Red. Mass:       1.8320                 1.9241                 1.5005
 IR Intens:       28.253                 13.177                  5.811
 Frequency:      1191.25                1219.92                1255.83
 Force Cnst:      1.0672                 1.0704                 1.1576
 Red. Mass:       1.2764                 1.2207                 1.2458
 IR Intens:        0.259                118.579                  4.674
 Frequency:      1352.92                1481.05                1483.66
 Force Cnst:      1.3541                 1.4758                 1.4819
 Red. Mass:       1.2556                 1.1419                 1.1426
 IR Intens:        8.800                  7.921                  6.520
 Frequency:      1503.58                1512.85                1515.85
 Force Cnst:      1.3974                 1.5311                 1.4545
 Red. Mass:       1.0491                 1.1355                 1.0744
 IR Intens:        1.527                  1.775                  7.996
 Frequency:      1590.59                2243.60                2905.74
 Force Cnst:      1.6027                 3.2867                 5.2486
 Red. Mass:       1.0752                 1.1082                 1.0551
 IR Intens:       68.560                468.500                 68.097
 Frequency:      2944.58                2959.01                3019.67
 Force Cnst:      5.6417                 5.3221                 5.9338
 Red. Mass:       1.1044                 1.0317                 1.1045
 IR Intens:       42.269                 54.160                 30.542
 Frequency:      3051.53                3135.46                3249.97
 Force Cnst:      6.0578                 6.0986                 6.9804
 Red. Mass:       1.1042                 1.0529                 1.1217
 IR Intens:       33.391                  1.600                  1.182
 Total job time:  1355.20s(wall), 5145.99s(cpu)
        *  Thank you very much for using Q-Chem.  Have a nice day.  *
 Q-Chem 5.1, Q-Chem, Inc., Pleasanton, CA (2018)
 Q-Chem 5.1.0 for Intel X86 EM64T Linux

User input:
--------------------------------------------------------------

$molecule
read
$end

$rem
JOBTYPE                   TS
METHOD                    wB97X-D3
BASIS                     def2-TZVP
UNRESTRICTED              TRUE
SCF_GUESS                 READ
GEOM_OPT_HESSIAN          READ
SCF_ALGORITHM             DIIS
MAX_SCF_CYCLES            100
SCF_CONVERGENCE           8
SYM_IGNORE                TRUE
SYMMETRY                  FALSE
GEOM_OPT_MAX_CYCLES       100
GEOM_OPT_TOL_GRADIENT     100
GEOM_OPT_TOL_DISPLACEMENT 400
GEOM_OPT_TOL_ENERGY       33
WAVEFUNCTION_ANALYSIS     FALSE
$end

--------------------------------------------------------------

    2    -269.4602948114      3.42e-10  Convergence criterion met
 Total energy in the final basis set =     -269.4602948114
   13    -269.4620727930      6.06e-09  Convergence criterion met
 Total energy in the final basis set =     -269.4620727930
   12    -269.4621316577      7.19e-09  Convergence criterion met
 Total energy in the final basis set =     -269.4621316577
   10    -269.4621337960      7.24e-09  Convergence criterion met
 Total energy in the final basis set =     -269.4621337960
   10    -269.4621347006      8.38e-09  Convergence criterion met
 Total energy in the final basis set =     -269.4621347006
    9    -269.4621357201      9.39e-09  Convergence criterion met
 Total energy in the final basis set =     -269.4621357201
    9    -269.4621361236      4.95e-09  Convergence criterion met
 Total energy in the final basis set =     -269.4621361236
   10    -269.4621275805      8.45e-09  Convergence criterion met
 Total energy in the final basis set =     -269.4621275805
   10    -269.4621360274      8.57e-09  Convergence criterion met
 Total energy in the final basis set =     -269.4621360274
 Final energy is   -269.462136027418
 **  OPTIMIZATION CONVERGED  **
        *  Thank you very much for using Q-Chem.  Have a nice day.  *
 Q-Chem 5.1, Q-Chem, Inc., Pleasanton, CA (2018)
 Q-Chem 5.1.0 for Intel X86 EM64T Linux

User input:
--------------------------------------------------------------

$molecule
read
$end

$rem
JOBTYPE                   FREQ
METHOD                    wB97X-D3
BASIS                     def2-TZVP
UNRESTRICTED              TRUE
SCF_GUESS                 READ
SCF_ALGORITHM             DIIS
MAX_SCF_CYCLES            100
SCF_CONVERGENCE           8
SYM_IGNORE                TRUE
SYMMETRY                  FALSE
WAVEFUNCTION_ANALYSIS     FALSE
$end
--------------------------------------------------------------

             Standard Nuclear Orientation (Angstroms)
    I     Atom           X                Y                Z
 ----------------------------------------------------------------
    1      C       1.7139080617     0.9120146594     0.3188598535
    2      O       0.4808577445     0.4869327698     0.8567232047
    3      C      -0.4277662432    -1.0705425474    -0.3062912940
    4      C      -1.7714982659    -0.5865865474    -0.6074536203
    5      O      -1.3152390119     0.7121617541    -0.7497504770
    6      H       2.0207508492     1.8575973124     0.7744509037
    7      H       2.4761690384     0.1618746460     0.5388559245
    8      H       1.6474027628     1.0522137970    -0.7653614518
    9      H       0.2796443159    -1.0752271408    -1.1244113760
   10      H      -0.1482035150    -1.5939849202     0.5969576140
   11      H      -2.1918284143    -1.0167390613    -1.5287332196
   12      H      -2.4887202782    -0.7398898591     0.2104446561
   13      H      -0.2848060440     0.8974741376     0.3171502820
 ----------------------------------------------------------------

    2    -269.4621360275      2.25e-09  Convergence criterion met
 Total energy in the final basis set =     -269.4621360275
 Frequency:      -603.84                 111.92                 154.19
 Force Cnst:      0.8408                 0.0154                 0.0247
 Red. Mass:       3.9136                 2.0912                 1.7622
 IR Intens:      112.867                  0.874                  5.246
 Frequency:       159.12                 206.46                 436.52
 Force Cnst:      0.0264                 0.0543                 0.5653
 Red. Mass:       1.7729                 2.1633                 5.0353
 IR Intens:       10.146                  4.352                133.975
 Frequency:       460.72                 782.02                 810.63
 Force Cnst:      0.9168                 0.4133                 0.4065
 Red. Mass:       7.3304                 1.1469                 1.0500
 IR Intens:       51.167                  4.016                  1.904
 Frequency:       993.03                1013.06                1072.90
 Force Cnst:      0.9442                 0.7217                 2.4650
 Red. Mass:       1.6251                 1.1935                 3.6345
 IR Intens:      146.611                102.431                153.879
 Frequency:      1126.21                1157.97                1173.14
 Force Cnst:      1.8708                 1.4393                 1.4180
 Red. Mass:       2.5035                 1.8218                 1.7487
 IR Intens:        4.045                 11.424                  7.461
 Frequency:      1179.87                1198.68                1254.03
 Force Cnst:      1.0777                 1.0334                 1.2440
 Red. Mass:       1.3140                 1.2207                 1.3426
 IR Intens:        0.694                 72.383                  4.622
 Frequency:      1349.05                1476.58                1478.43
 Force Cnst:      1.3879                 1.4727                 1.4890
 Red. Mass:       1.2944                 1.1465                 1.1562
 IR Intens:        8.478                 11.267                  8.405
 Frequency:      1499.99                1509.81                1520.35
 Force Cnst:      1.4077                 1.4395                 1.5832
 Red. Mass:       1.0619                 1.0718                 1.1625
 IR Intens:        7.936                 17.511                  2.171
 Frequency:      1534.28                2614.56                2980.79
 Force Cnst:      1.5012                 4.4096                 5.5264
 Red. Mass:       1.0824                 1.0948                 1.0557
 IR Intens:       49.291                491.578                 75.370
 Frequency:      3024.22                3029.15                3097.62
 Force Cnst:      5.9502                 5.5779                 6.2444
 Red. Mass:       1.1042                 1.0318                 1.1045
 IR Intens:       50.769                 43.539                 30.354
 Frequency:      3120.12                3184.09                3297.32
 Force Cnst:      6.3353                 6.2951                 7.1831
 Red. Mass:       1.1045                 1.0539                 1.1213
 IR Intens:       29.755                  4.067                  2.369

 STANDARD THERMODYNAMIC QUANTITIES AT   298.15 K  AND     1.00 ATM

   This Molecule has  1 Imaginary Frequencies
   Zero point vibrational energy:       68.629 kcal/mol

   Atom    1 Element C  Has Mass   12.00000
   Atom    2 Element O  Has Mass   15.99491
   Atom    3 Element C  Has Mass   12.00000
   Atom    4 Element C  Has Mass   12.00000
   Atom    5 Element O  Has Mass   15.99491
   Atom    6 Element H  Has Mass    1.00783
   Atom    7 Element H  Has Mass    1.00783
   Atom    8 Element H  Has Mass    1.00783
   Atom    9 Element H  Has Mass    1.00783
   Atom   10 Element H  Has Mass    1.00783
   Atom   11 Element H  Has Mass    1.00783
   Atom   12 Element H  Has Mass    1.00783
   Atom   13 Element H  Has Mass    1.00783
   Molecular Mass:    76.052460 amu
   Principal axes and moments of inertia in amu*Bohr^2:
                             1           2           3
    Eigenvalues --      174.34992   619.06095   695.19554
          X               0.87283    -0.28338    -0.39731
          Y               0.33902     0.93771     0.07596
          Z               0.35104    -0.20100     0.91453
   Rotational Symmetry Number is   1
   The Molecule is an Asymmetric Top
   Translational Enthalpy:        0.889 kcal/mol
   Rotational Enthalpy:           0.889 kcal/mol
   Vibrational Enthalpy:         70.803 kcal/mol
   gas constant (RT):             0.592 kcal/mol
   Translational Entropy:        38.902  cal/mol.K
   Rotational Entropy:           25.820  cal/mol.K
   Vibrational Entropy:          13.131  cal/mol.K

   Total Enthalpy:               73.173 kcal/mol
   Total Entropy:                77.853  cal/mol.K

 Total job time:  1377.75s(wall), 4751.24s(cpu)
        *  Thank you very much for using Q-Chem.  Have a nice day.  *
