 Q-Chem 5.1, Q-Chem, Inc., Pleasanton, CA (2018)
 Q-Chem 5.1.0 for Intel X86 EM64T Linux

User input:
--------------------------------------------------------------
$molecule
0 1
O  -0.4213867944  -1.3962982981  -0.0368816302
C   1.5424051368   1.3022954425   0.3408339279
N   2.1339239250   2.2957607737   0.4931853150
N  -2.7206568980  -1.3178793742   0.3865476183
N  -1.5972918123  -1.3530613937   0.1804805915
H   0.9925414429   0.3879498498   0.2012571776
$end

$rem
JOBTYPE                   OPT
METHOD                    wB97X-D3
BASIS                     def2-TZVP
UNRESTRICTED              TRUE
SCF_ALGORITHM             DIIS
MAX_SCF_CYCLES            100
SCF_CONVERGENCE           8
SYM_IGNORE                TRUE
SYMMETRY                  FALSE
GEOM_OPT_MAX_CYCLES       100
GEOM_OPT_TOL_GRADIENT     100
GEOM_OPT_TOL_DISPLACEMENT 400
GEOM_OPT_TOL_ENERGY       33
WAVEFUNCTION_ANALYSIS     FALSE
$end

--------------------------------------------------------------

   12    -278.1093068789      8.06e-09  Convergence criterion met
 Total energy in the final basis set =     -278.1093068789
   11    -278.1130257637      3.25e-09  Convergence criterion met
 Total energy in the final basis set =     -278.1130257637
   10    -278.1130624004      5.10e-09  Convergence criterion met
 Total energy in the final basis set =     -278.1130624004
   10    -278.1130676694      4.89e-09  Convergence criterion met
 Total energy in the final basis set =     -278.1130676694
   10    -278.1130909112      6.55e-09  Convergence criterion met
 Total energy in the final basis set =     -278.1130909112
   11    -278.1131474206      8.86e-09  Convergence criterion met
 Total energy in the final basis set =     -278.1131474206
   11    -278.1131711286      4.85e-09  Convergence criterion met
 Total energy in the final basis set =     -278.1131711286
   10    -278.1131831781      6.70e-09  Convergence criterion met
 Total energy in the final basis set =     -278.1131831781
   10    -278.1131866157      6.37e-09  Convergence criterion met
 Total energy in the final basis set =     -278.1131866157
   10    -278.1131888478      3.86e-09  Convergence criterion met
 Total energy in the final basis set =     -278.1131888478
   10    -278.1131927439      6.45e-09  Convergence criterion met
 Total energy in the final basis set =     -278.1131927439
    9    -278.1131938702      8.79e-09  Convergence criterion met
 Total energy in the final basis set =     -278.1131938702
   10    -278.1131941036      1.50e-09  Convergence criterion met
 Total energy in the final basis set =     -278.1131941036
 Final energy is   -278.113194103592
 **  OPTIMIZATION CONVERGED  **
 Total job time:  163.89s(wall), 2149.84s(cpu)
        *  Thank you very much for using Q-Chem.  Have a nice day.  *
 Q-Chem 5.1, Q-Chem, Inc., Pleasanton, CA (2018)
 Q-Chem 5.1.0 for Intel X86 EM64T Linux

User input:
--------------------------------------------------------------

$molecule
read
$end

$rem
JOBTYPE                   FREQ
METHOD                    wB97X-D3
BASIS                     def2-TZVP
UNRESTRICTED              TRUE
SCF_GUESS                 READ
SCF_ALGORITHM             DIIS
MAX_SCF_CYCLES            100
SCF_CONVERGENCE           8
SYM_IGNORE                TRUE
SYMMETRY                  FALSE
WAVEFUNCTION_ANALYSIS     FALSE
$end
--------------------------------------------------------------

             Standard Nuclear Orientation (Angstroms)
    I     Atom           X                Y                Z
 ----------------------------------------------------------------
    1      O      -0.5287616033    -1.2377973569     0.0193505578
    2      C       1.6287407858     1.3452909713     0.3385561332
    3      N       2.2541623715     2.2943880810     0.4669597302
    4      N      -2.7775626774    -1.5479393021     0.3368402091
    5      N      -1.6863516552    -1.3948521831     0.1834525276
    6      H       1.0393077786     0.4596767898     0.2202638422
 ----------------------------------------------------------------

    2    -278.1131941089      2.11e-10  Convergence criterion met
 Total energy in the final basis set =     -278.1131941089
 Frequency:        16.33                  53.90                  78.32
 Force Cnst:      0.0016                 0.0061                 0.0154
 Red. Mass:      10.2337                 3.5356                 4.2736
 IR Intens:        5.308                 28.328                 22.860
 Frequency:        85.16                 630.70                 633.23
 Force Cnst:      0.0328                 3.3396                 3.3665
 Red. Mass:       7.6846                14.2494                14.2500
 IR Intens:        6.597                  7.742                  7.371
 Frequency:       800.15                 818.54                1365.83
 Force Cnst:      0.5014                 0.5179                16.6067
 Red. Mass:       1.3292                 1.3119                15.1091
 IR Intens:       33.248                 37.862                107.788
 Frequency:      2238.33                2423.48                3440.63
 Force Cnst:     14.4650                48.7038                 8.3831
 Red. Mass:       4.9003                14.0745                 1.2019
 IR Intens:       17.215                459.096                177.672

 STANDARD THERMODYNAMIC QUANTITIES AT   298.15 K  AND     1.00 ATM

   This Molecule has  0 Imaginary Frequencies
   Zero point vibrational energy:       17.991 kcal/mol

   Atom    1 Element O  Has Mass   15.99491
   Atom    2 Element C  Has Mass   12.00000
   Atom    3 Element N  Has Mass   14.00307
   Atom    4 Element N  Has Mass   14.00307
   Atom    5 Element N  Has Mass   14.00307
   Atom    6 Element H  Has Mass    1.00783
   Molecular Mass:    71.011950 amu
   Principal axes and moments of inertia in amu*Bohr^2:
                             1           2           3
    Eigenvalues --       48.31605  1494.44253  1542.74580
          X               0.76707    -0.61919     0.16796
          Y               0.64058     0.72469    -0.25393
          Z               0.03552     0.30237     0.95253
   Rotational Symmetry Number is   1
   The Molecule is an Asymmetric Top
   Translational Enthalpy:        0.889 kcal/mol
   Rotational Enthalpy:           0.889 kcal/mol
   Vibrational Enthalpy:         20.326 kcal/mol
   gas constant (RT):             0.592 kcal/mol
   Translational Entropy:        38.697  cal/mol.K
   Rotational Entropy:           26.213  cal/mol.K
   Vibrational Entropy:          20.624  cal/mol.K

   Total Enthalpy:               22.696 kcal/mol
   Total Entropy:                85.534  cal/mol.K

 Total job time:  213.57s(wall), 835.08s(cpu)
        *  Thank you very much for using Q-Chem.  Have a nice day.  *
