 Q-Chem 5.1, Q-Chem, Inc., Pleasanton, CA (2018)
 Q-Chem 5.1.0 for Intel X86 EM64T Linux

User input:
--------------------------------------------------------------
$molecule
0 1
O   0.8159080744  -1.3395465258  -0.1072036838
C   0.9527057712  -0.1573865953   0.1217106885
N  -0.0859126532   0.7739486006   0.4319864457
N  -1.2483080965   0.3222345937   0.4687904714
N  -2.3467360728   0.0146790590   0.5282156955
H   1.9123428308   0.3860708826   0.1254049212
$end

$rem
JOBTYPE                   OPT
METHOD                    wB97X-D3
BASIS                     def2-TZVP
UNRESTRICTED              TRUE
SCF_ALGORITHM             DIIS
MAX_SCF_CYCLES            100
SCF_CONVERGENCE           8
SYM_IGNORE                TRUE
SYMMETRY                  FALSE
GEOM_OPT_MAX_CYCLES       100
GEOM_OPT_TOL_GRADIENT     100
GEOM_OPT_TOL_DISPLACEMENT 400
GEOM_OPT_TOL_ENERGY       33
WAVEFUNCTION_ANALYSIS     FALSE
$end

--------------------------------------------------------------

   14    -278.1357630990      8.12e-09  Convergence criterion met
 Total energy in the final basis set =     -278.1357630990
   12    -278.1393010936      7.52e-09  Convergence criterion met
 Total energy in the final basis set =     -278.1393010936
   12    -278.1392927265      3.98e-09  Convergence criterion met
 Total energy in the final basis set =     -278.1392927265
   13    -278.1377003510      3.72e-09  Convergence criterion met
 Total energy in the final basis set =     -278.1377003510
   13    -278.1394207082      3.27e-09  Convergence criterion met
 Total energy in the final basis set =     -278.1394207082
   10    -278.1394248608      8.93e-09  Convergence criterion met
 Total energy in the final basis set =     -278.1394248608
    9    -278.1394250452      3.16e-09  Convergence criterion met
 Total energy in the final basis set =     -278.1394250452
 Final energy is   -278.139425045169
 **  OPTIMIZATION CONVERGED  **
 Total job time:  130.87s(wall), 1746.37s(cpu)
        *  Thank you very much for using Q-Chem.  Have a nice day.  *
 Q-Chem 5.1, Q-Chem, Inc., Pleasanton, CA (2018)
 Q-Chem 5.1.0 for Intel X86 EM64T Linux

User input:
--------------------------------------------------------------

$molecule
read
$end

$rem
JOBTYPE                   FREQ
METHOD                    wB97X-D3
BASIS                     def2-TZVP
UNRESTRICTED              TRUE
SCF_GUESS                 READ
SCF_ALGORITHM             DIIS
MAX_SCF_CYCLES            100
SCF_CONVERGENCE           8
SYM_IGNORE                TRUE
SYMMETRY                  FALSE
WAVEFUNCTION_ANALYSIS     FALSE
$end
--------------------------------------------------------------

             Standard Nuclear Orientation (Angstroms)
    I     Atom           X                Y                Z
 ----------------------------------------------------------------
    1      O       0.7467693601    -1.3013125347    -0.0917719706
    2      C       0.9231793754    -0.1381316371     0.1290712649
    3      N      -0.0762784525     0.8042453112     0.4361244114
    4      N      -1.2224218176     0.3150590111     0.4642299062
    5      N      -2.2745268501    -0.0344224879     0.5105258280
    6      H       1.9032782387     0.3545623522     0.1207250986
 ----------------------------------------------------------------

    2    -278.1394250504      4.98e-10  Convergence criterion met
 Total energy in the final basis set =     -278.1394250504
 Frequency:       179.69                 266.06                 527.01
 Force Cnst:      0.2537                 0.1190                 2.2146
 Red. Mass:      13.3376                 2.8545                13.5335
 IR Intens:        1.398                 14.294                  0.729
 Frequency:       632.30                 861.46                1002.15
 Force Cnst:      2.9958                 4.7068                 3.7442
 Red. Mass:      12.7183                10.7648                 6.3276
 IR Intens:       13.609                 56.966                107.068
 Frequency:      1044.62                1275.50                1413.13
 Force Cnst:      1.0228                12.5885                 1.3590
 Red. Mass:       1.5907                13.1329                 1.1551
 IR Intens:        0.008                507.533                  1.670
 Frequency:      1808.70                2360.54                3075.37
 Force Cnst:     18.6709                45.6352                 6.0883
 Red. Mass:       9.6869                13.9004                 1.0926
 IR Intens:      312.590                416.350                 41.823

 STANDARD THERMODYNAMIC QUANTITIES AT   298.15 K  AND     1.00 ATM

   This Molecule has  0 Imaginary Frequencies
   Zero point vibrational energy:       20.652 kcal/mol

   Atom    1 Element O  Has Mass   15.99491
   Atom    2 Element C  Has Mass   12.00000
   Atom    3 Element N  Has Mass   14.00307
   Atom    4 Element N  Has Mass   14.00307
   Atom    5 Element N  Has Mass   14.00307
   Atom    6 Element H  Has Mass    1.00783
   Molecular Mass:    71.011950 amu
   Principal axes and moments of inertia in amu*Bohr^2:
                             1           2           3
    Eigenvalues --      109.20861   421.74131   530.94992
          X               0.93900     0.32598     0.10963
          Y              -0.30020     0.93241    -0.20122
          Z              -0.16781     0.15603     0.97339
   Rotational Symmetry Number is   1
   The Molecule is an Asymmetric Top
   Translational Enthalpy:        0.889 kcal/mol
   Rotational Enthalpy:           0.889 kcal/mol
   Vibrational Enthalpy:         21.629 kcal/mol
   gas constant (RT):             0.592 kcal/mol
   Translational Entropy:        38.697  cal/mol.K
   Rotational Entropy:           24.706  cal/mol.K
   Vibrational Entropy:           5.329  cal/mol.K

   Total Enthalpy:               23.999 kcal/mol
   Total Entropy:                68.732  cal/mol.K

 Total job time:  408.71s(wall), 1476.01s(cpu)
        *  Thank you very much for using Q-Chem.  Have a nice day.  *
