 Q-Chem 5.1, Q-Chem, Inc., Pleasanton, CA (2018)
 Q-Chem 5.1.0 for Intel X86 EM64T Linux

User input:
--------------------------------------------------------------
$molecule
0 1
O  -0.1371440745  -1.2142697143   0.0529646579
C   0.9021471679   0.3141683341   0.2197507388
N   0.2069701445   1.2663665658   0.4690033754
N  -1.5925036458   0.4171918043   0.5122020751
N  -1.2613290135  -0.6929858986   0.2729350106
H   1.8809074214  -0.1025980913   0.0415211422
$end

$rem
JOBTYPE                   FREQ
METHOD                    wB97X-D3
BASIS                     def2-TZVP
UNRESTRICTED              TRUE
SCF_ALGORITHM             DIIS
MAX_SCF_CYCLES            100
SCF_CONVERGENCE           8
SYM_IGNORE                TRUE
SYMMETRY                  FALSE
WAVEFUNCTION_ANALYSIS     FALSE
$end

--------------------------------------------------------------

   15    -278.0437241691      3.27e-09  Convergence criterion met
 Total energy in the final basis set =     -278.0437241691
 Frequency:      -627.10                 376.94                 433.80
 Force Cnst:      2.8952                 0.9569                 0.4090
 Red. Mass:      12.4957                11.4303                 3.6885
 IR Intens:       43.845                 62.995                 23.784
 Frequency:       636.56                 658.36                 806.12
 Force Cnst:      1.9889                 2.9777                 2.4544
 Red. Mass:       8.3307                11.6603                 6.4105
 IR Intens:        8.731                  2.481                 71.117
 Frequency:       812.86                 958.01                1181.82
 Force Cnst:      0.5764                 0.6769                 8.7667
 Red. Mass:       1.4806                 1.2517                10.6533
 IR Intens:       22.072                 11.328                 59.026
 Frequency:      1755.77                1834.38                3321.39
 Force Cnst:     23.5815                14.2923                 7.3431
 Red. Mass:      12.9833                 7.2090                 1.1298
 IR Intens:      152.272                  5.073                 30.547
 Total job time:  518.33s(wall), 1917.76s(cpu)
        *  Thank you very much for using Q-Chem.  Have a nice day.  *
 Q-Chem 5.1, Q-Chem, Inc., Pleasanton, CA (2018)
 Q-Chem 5.1.0 for Intel X86 EM64T Linux

User input:
--------------------------------------------------------------

$molecule
read
$end

$rem
JOBTYPE                   TS
METHOD                    wB97X-D3
BASIS                     def2-TZVP
UNRESTRICTED              TRUE
SCF_GUESS                 READ
GEOM_OPT_HESSIAN          READ
SCF_ALGORITHM             DIIS
MAX_SCF_CYCLES            100
SCF_CONVERGENCE           8
SYM_IGNORE                TRUE
SYMMETRY                  FALSE
GEOM_OPT_MAX_CYCLES       100
GEOM_OPT_TOL_GRADIENT     100
GEOM_OPT_TOL_DISPLACEMENT 400
GEOM_OPT_TOL_ENERGY       33
WAVEFUNCTION_ANALYSIS     FALSE
$end

--------------------------------------------------------------

    2    -278.0437241636      7.63e-10  Convergence criterion met
 Total energy in the final basis set =     -278.0437241636
   12    -278.0468610872      4.18e-09  Convergence criterion met
 Total energy in the final basis set =     -278.0468610872
   10    -278.0468842278      7.58e-09  Convergence criterion met
 Total energy in the final basis set =     -278.0468842278
    9    -278.0468843763      5.07e-09  Convergence criterion met
 Total energy in the final basis set =     -278.0468843763
 Final energy is   -278.046884376291
 **  OPTIMIZATION CONVERGED  **
        *  Thank you very much for using Q-Chem.  Have a nice day.  *
 Q-Chem 5.1, Q-Chem, Inc., Pleasanton, CA (2018)
 Q-Chem 5.1.0 for Intel X86 EM64T Linux

User input:
--------------------------------------------------------------

$molecule
read
$end

$rem
JOBTYPE                   FREQ
METHOD                    wB97X-D3
BASIS                     def2-TZVP
UNRESTRICTED              TRUE
SCF_GUESS                 READ
SCF_ALGORITHM             DIIS
MAX_SCF_CYCLES            100
SCF_CONVERGENCE           8
SYM_IGNORE                TRUE
SYMMETRY                  FALSE
WAVEFUNCTION_ANALYSIS     FALSE
$end
--------------------------------------------------------------

             Standard Nuclear Orientation (Angstroms)
    I     Atom           X                Y                Z
 ----------------------------------------------------------------
    1      O      -0.1408148001    -1.1984234636     0.0584276646
    2      C       0.8873965875     0.3104362178     0.2218605132
    3      N       0.1994916134     1.2403453661     0.4667111940
    4      N      -1.5669735817     0.4090199594     0.5063406518
    5      N      -1.2434453291    -0.6760491843     0.2731909208
    6      H       1.8633935101    -0.0974558953     0.0418460557
 ----------------------------------------------------------------

    2    -278.0468843817      2.51e-09  Convergence criterion met
 Total energy in the final basis set =     -278.0468843817
 Frequency:      -635.41                 368.95                 375.95
 Force Cnst:      2.9058                 0.8804                 0.3359
 Red. Mass:      12.2153                10.9771                 4.0330
 IR Intens:       48.238                 73.857                 21.572
 Frequency:       617.97                 627.90                 795.07
 Force Cnst:      2.4686                 2.0034                 0.5287
 Red. Mass:      10.9715                 8.6247                 1.4195
 IR Intens:        3.473                  8.328                 20.260
 Frequency:       812.09                 954.06                1274.44
 Force Cnst:      2.9379                 0.6515                12.0646
 Red. Mass:       7.5611                 1.2148                12.6074
 IR Intens:       62.200                  8.518                 65.238
 Frequency:      1947.83                1991.31                3376.79
 Force Cnst:     20.7044                20.4277                 7.6507
 Red. Mass:       9.2621                 8.7436                 1.1388
 IR Intens:      144.148                 26.891                 26.397

 STANDARD THERMODYNAMIC QUANTITIES AT   298.15 K  AND     1.00 ATM

   This Molecule has  1 Imaginary Frequencies
   Zero point vibrational energy:       18.788 kcal/mol

   Atom    1 Element O  Has Mass   15.99491
   Atom    2 Element C  Has Mass   12.00000
   Atom    3 Element N  Has Mass   14.00307
   Atom    4 Element N  Has Mass   14.00307
   Atom    5 Element N  Has Mass   14.00307
   Atom    6 Element H  Has Mass    1.00783
   Molecular Mass:    71.011950 amu
   Principal axes and moments of inertia in amu*Bohr^2:
                             1           2           3
    Eigenvalues --      169.73850   246.53456   416.27305
          X               0.78140    -0.61493     0.10612
          Y               0.62335     0.76129    -0.17855
          Z               0.02900     0.20567     0.97819
   Rotational Symmetry Number is   1
   The Molecule is an Asymmetric Top
   Translational Enthalpy:        0.889 kcal/mol
   Rotational Enthalpy:           0.889 kcal/mol
   Vibrational Enthalpy:         19.530 kcal/mol
   gas constant (RT):             0.592 kcal/mol
   Translational Entropy:        38.697  cal/mol.K
   Rotational Entropy:           24.369  cal/mol.K
   Vibrational Entropy:           3.518  cal/mol.K

   Total Enthalpy:               21.900 kcal/mol
   Total Entropy:                66.585  cal/mol.K

 Total job time:  502.94s(wall), 1681.94s(cpu)
        *  Thank you very much for using Q-Chem.  Have a nice day.  *
