 Q-Chem 5.1, Q-Chem, Inc., Pleasanton, CA (2018)
 Q-Chem 5.1.0 for Intel X86 EM64T Linux

User input:
--------------------------------------------------------------
$molecule
0 1
C   0.7045614020   0.2836351078   0.2103072878
O   1.3729129537  -0.8272788906   0.8567442859
C   0.2896037868  -1.7293469685   0.4955242745
C  -0.4874571653  -0.5981106533  -0.2107632669
O  -1.1504746568   2.3096538083  -1.3615657371
H   0.4739845145   1.0918767858   0.9253895868
H   1.3083961632   0.6962963713  -0.6161420492
H  -0.2487884309   2.1881789979  -1.7067487936
H   0.6393570581  -2.5457651987  -0.1558071783
H  -0.1963534971  -2.1594314341   1.3854398275
H  -0.6220857925  -0.7166938228  -1.2904013808
H  -1.4484353361  -0.3307138621   0.2400031873
H  -1.0038389997   2.5181327588  -0.4225130437
$end

$rem
JOBTYPE                   OPT
METHOD                    wB97X-D3
BASIS                     def2-TZVP
UNRESTRICTED              TRUE
SCF_ALGORITHM             DIIS
MAX_SCF_CYCLES            100
SCF_CONVERGENCE           8
SYM_IGNORE                TRUE
SYMMETRY                  FALSE
GEOM_OPT_MAX_CYCLES       100
GEOM_OPT_TOL_GRADIENT     100
GEOM_OPT_TOL_DISPLACEMENT 400
GEOM_OPT_TOL_ENERGY       33
WAVEFUNCTION_ANALYSIS     FALSE
$end

--------------------------------------------------------------

   12    -269.5645626859      7.07e-09  Convergence criterion met
 Total energy in the final basis set =     -269.5645626859
   11    -269.5658145165      4.00e-09  Convergence criterion met
 Total energy in the final basis set =     -269.5658145165
    9    -269.5659176067      6.53e-09  Convergence criterion met
 Total energy in the final basis set =     -269.5659176067
    9    -269.5659756370      5.30e-09  Convergence criterion met
 Total energy in the final basis set =     -269.5659756370
    9    -269.5660065392      3.52e-09  Convergence criterion met
 Total energy in the final basis set =     -269.5660065392
    9    -269.5660281977      3.80e-09  Convergence criterion met
 Total energy in the final basis set =     -269.5660281977
    9    -269.5660447772      7.40e-09  Convergence criterion met
 Total energy in the final basis set =     -269.5660447772
   10    -269.5660706821      2.35e-09  Convergence criterion met
    8    -269.5664884121      4.81e-09  Convergence criterion met
 Total energy in the final basis set =     -269.5664884121
    9    -269.5664888839      2.75e-09  Convergence criterion met
 Total energy in the final basis set =     -269.5664888839
    9    -269.5664894232      3.78e-09  Convergence criterion met
 Total energy in the final basis set =     -269.5664894232
    9    -269.5664901882      4.90e-09  Convergence criterion met
 Total energy in the final basis set =     -269.5664901882
    9    -269.5664905994      4.43e-09  Convergence criterion met
 Total energy in the final basis set =     -269.5664905994
    8    -269.5664907163      2.96e-09  Convergence criterion met
 Total energy in the final basis set =     -269.5664907163
 Final energy is   -269.566490716349
 **  OPTIMIZATION CONVERGED  **
 Total job time:  817.84s(wall), 11019.16s(cpu)
        *  Thank you very much for using Q-Chem.  Have a nice day.  *
 Q-Chem 5.1, Q-Chem, Inc., Pleasanton, CA (2018)
 Q-Chem 5.1.0 for Intel X86 EM64T Linux

User input:
--------------------------------------------------------------

$molecule
read
$end

$rem
JOBTYPE                   FREQ
METHOD                    wB97X-D3
BASIS                     def2-TZVP
UNRESTRICTED              TRUE
SCF_GUESS                 READ
SCF_ALGORITHM             DIIS
MAX_SCF_CYCLES            100
SCF_CONVERGENCE           8
SYM_IGNORE                TRUE
SYMMETRY                  FALSE
WAVEFUNCTION_ANALYSIS     FALSE
$end
--------------------------------------------------------------

             Standard Nuclear Orientation (Angstroms)
    I     Atom           X                Y                Z
 ----------------------------------------------------------------
    1      C       0.7386977206     0.1669072030     0.2567867473
    2      O       1.3876686404    -0.9491586559     0.8900984007
    3      C       0.3095281064    -1.8295076920     0.5412860314
    4      C      -0.4447483021    -0.7024434346    -0.1751351318
    5      O      -0.9913967758     2.3239013988    -1.2629309852
    6      H       0.5063175836     0.9599051001     0.9722639002
    7      H       1.3431951955     0.5849422934    -0.5517303026
    8      H      -0.5129834120     2.7248573846    -1.9899040057
    9      H       0.6493379589    -2.6548980707    -0.0913547747
   10      H      -0.1793520750    -2.2408667716     1.4296294387
   11      H      -0.5580129057    -0.8235606647    -1.2499367020
   12      H      -1.4049287412    -0.4257806986     0.2535686202
   13      H      -1.2119409938     3.0461356079    -0.6731742362
 ----------------------------------------------------------------

    2    -269.5664907165      6.90e-10  Convergence criterion met
 Total energy in the final basis set =     -269.5664907165
 Frequency:        46.57                  59.98                  66.43
 Force Cnst:      0.0014                 0.0059                 0.0079
 Red. Mass:       1.0710                 2.7970                 3.0449
 IR Intens:       56.364                  1.100                  2.495
 Frequency:        81.78                  94.94                  97.74
 Force Cnst:      0.0191                 0.0067                 0.0102
 Red. Mass:       4.8361                 1.2542                 1.8057
 IR Intens:       77.567                176.108                 27.537
 Frequency:       104.64                 776.10                 822.40
 Force Cnst:      0.0069                 0.3816                 2.2769
 Red. Mass:       1.0627                 1.0754                 5.7139
 IR Intens:       29.295                  0.183                  5.378
 Frequency:       844.59                 960.97                 975.72
 Force Cnst:      0.4568                 1.4456                 1.3213
 Red. Mass:       1.0868                 2.6568                 2.3557
 IR Intens:        0.018                 22.287                 11.510
 Frequency:      1074.25                1081.93                1163.74
 Force Cnst:      5.0050                 3.8398                 1.2087
 Red. Mass:       7.3611                 5.5675                 1.5149
 IR Intens:       83.205                 43.167                  2.342
 Frequency:      1176.02                1208.20                1237.61
 Force Cnst:      0.9063                 1.0907                 1.0295
 Red. Mass:       1.1123                 1.2682                 1.1408
 IR Intens:        0.226                  0.126                  0.259
 Frequency:      1274.94                1325.80                1390.98
 Force Cnst:      1.4940                 1.3430                 1.6607
 Red. Mass:       1.5600                 1.2968                 1.4568
 IR Intens:       10.695                  0.042                  2.662
 Frequency:      1501.54                1524.34                1553.37
 Force Cnst:      1.4651                 1.4891                 1.6060
 Red. Mass:       1.1029                 1.0877                 1.1297
 IR Intens:        4.903                  1.399                  0.018
 Frequency:      1627.73                3040.22                3056.38
 Force Cnst:      1.6915                 5.7437                 5.8211
 Red. Mass:       1.0836                 1.0547                 1.0576
 IR Intens:       85.638                130.387                 36.817
 Frequency:      3083.03                3098.17                3121.54
 Force Cnst:      6.2283                 6.2890                 6.0930
 Red. Mass:       1.1122                 1.1120                 1.0613
 IR Intens:       43.225                 33.977                 23.820
 Frequency:      3176.34                3871.74                3979.26
 Force Cnst:      6.5965                 9.2239                10.1014
 Red. Mass:       1.1097                 1.0444                 1.0828
 IR Intens:       26.510                 11.704                 56.199

 STANDARD THERMODYNAMIC QUANTITIES AT   298.15 K  AND     1.00 ATM

   This Molecule has  0 Imaginary Frequencies
   Zero point vibrational energy:       69.333 kcal/mol

   Atom    1 Element C  Has Mass   12.00000
   Atom    2 Element O  Has Mass   15.99491
   Atom    3 Element C  Has Mass   12.00000
   Atom    4 Element C  Has Mass   12.00000
   Atom    5 Element O  Has Mass   15.99491
   Atom    6 Element H  Has Mass    1.00783
   Atom    7 Element H  Has Mass    1.00783
   Atom    8 Element H  Has Mass    1.00783
   Atom    9 Element H  Has Mass    1.00783
   Atom   10 Element H  Has Mass    1.00783
   Atom   11 Element H  Has Mass    1.00783
   Atom   12 Element H  Has Mass    1.00783
   Atom   13 Element H  Has Mass    1.00783
   Molecular Mass:    76.052460 amu
   Principal axes and moments of inertia in amu*Bohr^2:
                             1           2           3
    Eigenvalues --      154.89777   907.23734  1019.67000
          X              -0.38174     0.79669    -0.46857
          Y               0.82137     0.52488     0.22328
          Z              -0.42383     0.29964     0.85474
   Rotational Symmetry Number is   1
   The Molecule is an Asymmetric Top
   Translational Enthalpy:        0.889 kcal/mol
   Rotational Enthalpy:           0.889 kcal/mol
   Vibrational Enthalpy:         73.043 kcal/mol
   gas constant (RT):             0.592 kcal/mol
   Translational Entropy:        38.902  cal/mol.K
   Rotational Entropy:           26.463  cal/mol.K
   Vibrational Entropy:          29.162  cal/mol.K

   Total Enthalpy:               75.413 kcal/mol
   Total Entropy:                94.526  cal/mol.K

 Total job time:  1240.63s(wall), 4300.36s(cpu)
        *  Thank you very much for using Q-Chem.  Have a nice day.  *
