 Q-Chem 5.1, Q-Chem, Inc., Pleasanton, CA (2018)
 Q-Chem 5.1.0 for Intel X86 EM64T Linux

User input:
--------------------------------------------------------------
$molecule
0 1
C   1.1659893199   0.6573196894   0.5352720070
O   0.8181806134  -0.6016428045   1.1059826391
C   0.1332896626  -1.2699846842   0.0811731459
C  -1.0637142394  -0.4371048604  -0.2731068808
O  -0.6682020781   1.2511203831  -1.4741347982
H   1.4808290635   1.3346985764   1.3371764030
H   1.9480474791   0.5343269777  -0.2411951242
H   0.0373535593   1.2213085306  -0.6777043548
H   0.7731378629  -1.4555800040  -0.8088254676
H  -0.1906537869  -2.2641326455   0.4573187927
H  -1.7643781241  -0.8378921813  -1.0090919741
H  -1.5165595552   0.0764369202   0.5739156426
H  -1.3452067769   1.8987101025  -1.1769080305
$end

$rem
JOBTYPE                   FREQ
METHOD                    wB97X-D3
BASIS                     def2-TZVP
UNRESTRICTED              TRUE
SCF_ALGORITHM             DIIS
MAX_SCF_CYCLES            100
SCF_CONVERGENCE           8
SYM_IGNORE                TRUE
SYMMETRY                  FALSE
WAVEFUNCTION_ANALYSIS     FALSE
$end

--------------------------------------------------------------

   15    -269.4143318294      6.13e-09  Convergence criterion met
 Total energy in the final basis set =     -269.4143318294
 Frequency:      -833.54                 201.72                 247.64
 Force Cnst:      0.9630                 0.0725                 0.1101
 Red. Mass:       2.3524                 3.0232                 3.0480
 IR Intens:      406.585                  9.258                 12.322
 Frequency:       307.87                 398.49                 506.88
 Force Cnst:      0.2565                 0.1917                 0.2066
 Red. Mass:       4.5940                 2.0486                 1.3645
 IR Intens:       43.153                 15.309                 37.305
 Frequency:       590.05                 697.26                 784.22
 Force Cnst:      0.3285                 0.3132                 0.5682
 Red. Mass:       1.6017                 1.0934                 1.5681
 IR Intens:        5.324                 63.893                 95.252
 Frequency:       823.17                 873.47                 918.88
 Force Cnst:      0.4750                 1.0613                 0.9776
 Red. Mass:       1.1897                 2.3610                 1.9652
 IR Intens:       25.503                 92.998                 13.947
 Frequency:       958.07                1000.11                1070.22
 Force Cnst:      0.7282                 1.2205                 0.8364
 Red. Mass:       1.3465                 2.0710                 1.2395
 IR Intens:       15.465                104.275                229.845
 Frequency:      1112.87                1158.86                1163.38
 Force Cnst:      1.0415                 1.4714                 1.2700
 Red. Mass:       1.4273                 1.8596                 1.5926
 IR Intens:       26.944                 36.761                 28.977
 Frequency:      1220.05                1279.75                1386.43
 Force Cnst:      1.0867                 1.2313                 1.4711
 Red. Mass:       1.2391                 1.2760                 1.2990
 IR Intens:       24.687                 20.045                  3.220
 Frequency:      1466.59                1470.27                1496.62
 Force Cnst:      1.4842                 1.3943                 1.4711
 Red. Mass:       1.1712                 1.0948                 1.1147
 IR Intens:        3.545                  1.846                  8.743
 Frequency:      1617.90                1719.95                2889.27
 Force Cnst:      1.6400                 2.1010                 5.2343
 Red. Mass:       1.0634                 1.2055                 1.0642
 IR Intens:       61.442                278.235                 60.368
 Frequency:      2910.71                2926.38                3087.02
 Force Cnst:      5.3053                 5.5093                 6.1656
 Red. Mass:       1.0628                 1.0919                 1.0981
 IR Intens:       79.563                  6.080                 31.347
 Frequency:      3106.50                3212.32                3603.45
 Force Cnst:      6.0033                 6.7842                 8.1488
 Red. Mass:       1.0558                 1.1159                 1.0651
 IR Intens:        6.824                  4.301                 35.842
 Total job time:  1523.49s(wall), 5354.50s(cpu)
        *  Thank you very much for using Q-Chem.  Have a nice day.  *
 Q-Chem 5.1, Q-Chem, Inc., Pleasanton, CA (2018)
 Q-Chem 5.1.0 for Intel X86 EM64T Linux

User input:
--------------------------------------------------------------

$molecule
read
$end

$rem
JOBTYPE                   TS
METHOD                    wB97X-D3
BASIS                     def2-TZVP
UNRESTRICTED              TRUE
SCF_GUESS                 READ
GEOM_OPT_HESSIAN          READ
SCF_ALGORITHM             DIIS
MAX_SCF_CYCLES            100
SCF_CONVERGENCE           8
SYM_IGNORE                TRUE
SYMMETRY                  FALSE
GEOM_OPT_MAX_CYCLES       100
GEOM_OPT_TOL_GRADIENT     100
GEOM_OPT_TOL_DISPLACEMENT 400
GEOM_OPT_TOL_ENERGY       33
WAVEFUNCTION_ANALYSIS     FALSE
$end

--------------------------------------------------------------

    2    -269.4143318292      8.75e-10  Convergence criterion met
 Total energy in the final basis set =     -269.4143318292
   13    -269.4174824826      6.26e-09  Convergence criterion met
 Total energy in the final basis set =     -269.4174824826
   13    -269.4177167310      4.52e-09  Convergence criterion met
 Total energy in the final basis set =     -269.4177167310
   11    -269.4177728064      8.05e-09  Convergence criterion met
 Total energy in the final basis set =     -269.4177728064
   11    -269.4177863242      6.19e-09  Convergence criterion met
 Total energy in the final basis set =     -269.4177863242
   10    -269.4177878372      3.16e-09  Convergence criterion met
 Total energy in the final basis set =     -269.4177878372
   10    -269.4177879046      6.23e-09  Convergence criterion met
   11    -269.4177862865      9.91e-09  Convergence criterion met
 Total energy in the final basis set =     -269.4177862865
   11    -269.4177873116      6.75e-09  Convergence criterion met
 Total energy in the final basis set =     -269.4177873116
   11    -269.4177900699      5.91e-09  Convergence criterion met
 Total energy in the final basis set =     -269.4177900699
    9    -269.4177900679      8.58e-09  Convergence criterion met
 Total energy in the final basis set =     -269.4177900679
    9    -269.4177903256      5.80e-09  Convergence criterion met
 Total energy in the final basis set =     -269.4177903256
    8    -269.4177903265      3.32e-09  Convergence criterion met
 Total energy in the final basis set =     -269.4177903265
 Final energy is   -269.417790326546
 **  OPTIMIZATION CONVERGED  **
        *  Thank you very much for using Q-Chem.  Have a nice day.  *
 Q-Chem 5.1, Q-Chem, Inc., Pleasanton, CA (2018)
 Q-Chem 5.1.0 for Intel X86 EM64T Linux

User input:
--------------------------------------------------------------

$molecule
read
$end

$rem
JOBTYPE                   FREQ
METHOD                    wB97X-D3
BASIS                     def2-TZVP
UNRESTRICTED              TRUE
SCF_GUESS                 READ
SCF_ALGORITHM             DIIS
MAX_SCF_CYCLES            100
SCF_CONVERGENCE           8
SYM_IGNORE                TRUE
SYMMETRY                  FALSE
WAVEFUNCTION_ANALYSIS     FALSE
$end
--------------------------------------------------------------

             Standard Nuclear Orientation (Angstroms)
    I     Atom           X                Y                Z
 ----------------------------------------------------------------
    1      C       1.0964160265     0.6276207800     0.5042482995
    2      O       0.9016247704    -0.6714718912     1.0468428238
    3      C       0.1502000274    -1.3091404412     0.0766455528
    4      C      -0.9894309531    -0.3932328902    -0.2166994915
    5      O      -0.6719147859     1.2109781355    -1.4584575820
    6      H       1.2813846884     1.3316070913     1.3165838401
    7      H       1.9420445613     0.6225224242    -0.2012935501
    8      H       0.0338399364     1.1946590095    -0.6780268536
    9      H       0.7318623725    -1.5176835146    -0.8362943025
   10      H      -0.2334360254    -2.2745898893     0.4464910875
   11      H      -1.7147641992    -0.7147999412    -0.9560563296
   12      H      -1.3995548892     0.1009617388     0.6541520027
   13      H      -1.3201585300     1.9001533884    -1.2682634970
 ----------------------------------------------------------------

    2    -269.4177903267      1.50e-09  Convergence criterion met
 Total energy in the final basis set =     -269.4177903267
 Frequency:      -833.24                 132.15                 230.43
 Force Cnst:      0.9609                 0.0292                 0.0599
 Red. Mass:       2.3491                 2.8410                 1.9136
 IR Intens:      292.274                  7.275                 12.414
 Frequency:       321.68                 379.01                 428.03
 Force Cnst:      0.1628                 0.2677                 0.1407
 Red. Mass:       2.6697                 3.1629                 1.3035
 IR Intens:       19.138                 19.680                103.296
 Frequency:       531.20                 583.34                 699.58
 Force Cnst:      0.2096                 0.3151                 0.3795
 Red. Mass:       1.2605                 1.5718                 1.3160
 IR Intens:       37.162                 51.509                 79.452
 Frequency:       810.13                 905.95                 938.32
 Force Cnst:      0.6285                 0.8528                 0.8154
 Red. Mass:       1.6254                 1.7635                 1.5718
 IR Intens:       15.868                 58.672                109.825
 Frequency:       965.72                 998.79                1041.65
 Force Cnst:      1.1252                 0.7958                 1.2006
 Red. Mass:       2.0477                 1.3539                 1.8780
 IR Intens:       21.481                225.236                  6.968
 Frequency:      1136.61                1162.12                1197.16
 Force Cnst:      1.0141                 1.1364                 1.3155
 Red. Mass:       1.3323                 1.4281                 1.5579
 IR Intens:       14.122                  4.736                 31.074
 Frequency:      1217.61                1280.16                1393.81
 Force Cnst:      1.4773                 1.2552                 1.5556
 Red. Mass:       1.6912                 1.3000                 1.3591
 IR Intens:       58.497                 12.586                  2.511
 Frequency:      1467.75                1470.19                1503.05
 Force Cnst:      1.4660                 1.4286                 1.4914
 Red. Mass:       1.1550                 1.1218                 1.1204
 IR Intens:        7.392                  1.965                  9.140
 Frequency:      1542.29                1936.88                2966.82
 Force Cnst:      1.5026                 2.5730                 5.4943
 Red. Mass:       1.0722                 1.1641                 1.0594
 IR Intens:       41.483                355.651                 59.194
 Frequency:      2976.93                2999.55                3128.04
 Force Cnst:      5.5554                 5.8157                 6.3241
 Red. Mass:       1.0640                 1.0971                 1.0970
 IR Intens:       82.907                 15.595                 37.887
 Frequency:      3165.16                3271.85                3824.89
 Force Cnst:      6.2357                 7.0329                 9.1852
 Red. Mass:       1.0564                 1.1151                 1.0656
 IR Intens:       15.204                  6.634                 39.326

 STANDARD THERMODYNAMIC QUANTITIES AT   298.15 K  AND     1.00 ATM

   This Molecule has  1 Imaginary Frequencies
   Zero point vibrational energy:       66.628 kcal/mol

   Atom    1 Element C  Has Mass   12.00000
   Atom    2 Element O  Has Mass   15.99491
   Atom    3 Element C  Has Mass   12.00000
   Atom    4 Element C  Has Mass   12.00000
   Atom    5 Element O  Has Mass   15.99491
   Atom    6 Element H  Has Mass    1.00783
   Atom    7 Element H  Has Mass    1.00783
   Atom    8 Element H  Has Mass    1.00783
   Atom    9 Element H  Has Mass    1.00783
   Atom   10 Element H  Has Mass    1.00783
   Atom   11 Element H  Has Mass    1.00783
   Atom   12 Element H  Has Mass    1.00783
   Atom   13 Element H  Has Mass    1.00783
   Molecular Mass:    76.052460 amu
   Principal axes and moments of inertia in amu*Bohr^2:
                             1           2           3
    Eigenvalues --      238.77158   487.69082   652.46976
          X               0.51230     0.62741    -0.58643
          Y              -0.55549     0.76285     0.33089
          Z               0.65496     0.15625     0.73933
   Rotational Symmetry Number is   1
   The Molecule is an Asymmetric Top
   Translational Enthalpy:        0.889 kcal/mol
   Rotational Enthalpy:           0.889 kcal/mol
   Vibrational Enthalpy:         68.561 kcal/mol
   gas constant (RT):             0.592 kcal/mol
   Translational Entropy:        38.902  cal/mol.K
   Rotational Entropy:           25.833  cal/mol.K
   Vibrational Entropy:          10.386  cal/mol.K

   Total Enthalpy:               70.931 kcal/mol
   Total Entropy:                75.121  cal/mol.K

 Total job time:  1456.84s(wall), 4863.57s(cpu)
        *  Thank you very much for using Q-Chem.  Have a nice day.  *
