 Q-Chem 5.1, Q-Chem, Inc., Pleasanton, CA (2018)
 Q-Chem 5.1.0 for Intel X86 EM64T Linux

User input:
--------------------------------------------------------------
$molecule
0 1
C   1.5809863800   0.6726539810   0.2465480750
O   0.2818916196   0.2671820920   0.7111206682
C  -0.1045698089  -0.9832733621   0.3072818403
C  -1.3940179853  -1.3316631972   0.1798159651
O  -1.0370335810   1.6027507232  -1.4896465441
H   1.8212311026   1.5959039809   0.7829240157
H   2.3362864335  -0.0943997626   0.4774371226
H   1.5523681541   0.8681206393  -0.8343068229
H  -1.2264900855   0.7021129905  -1.8072065391
H   0.7129778441  -1.6862452303   0.1165867802
H  -1.6542027819  -2.3570797113  -0.0708081625
H  -2.1991480514  -0.6245734737   0.3737455796
H  -0.8312472396   1.4424573304  -0.5491539781
$end

$rem
JOBTYPE                   OPT
METHOD                    wB97X-D3
BASIS                     def2-TZVP
UNRESTRICTED              TRUE
SCF_ALGORITHM             DIIS
MAX_SCF_CYCLES            100
SCF_CONVERGENCE           8
SYM_IGNORE                TRUE
SYMMETRY                  FALSE
GEOM_OPT_MAX_CYCLES       100
GEOM_OPT_TOL_GRADIENT     100
GEOM_OPT_TOL_DISPLACEMENT 400
GEOM_OPT_TOL_ENERGY       33
WAVEFUNCTION_ANALYSIS     FALSE
$end

--------------------------------------------------------------

   13    -269.5725347500      7.48e-09  Convergence criterion met
 Total energy in the final basis set =     -269.5725347500
   11    -269.5740264807      5.48e-09  Convergence criterion met
 Total energy in the final basis set =     -269.5740264807
   10    -269.5742345593      8.29e-09  Convergence criterion met
 Total energy in the final basis set =     -269.5742345593
   11    -269.5743097423      5.32e-09  Convergence criterion met
 Total energy in the final basis set =     -269.5743097423
   11    -269.5743735701      3.19e-09  Convergence criterion met
 Total energy in the final basis set =     -269.5743735701
    9    -269.5743958475      8.88e-09  Convergence criterion met
 Total energy in the final basis set =     -269.5743958475
   10    -269.5744183320      6.06e-09  Convergence criterion met
 Total energy in the final basis set =     -269.5744183320
   10    -269.5744250214      4.28e-09  Convergence criterion met
   10    -269.5744434312      5.00e-09  Convergence criterion met
 Total energy in the final basis set =     -269.5744434312
    9    -269.5744471120      5.03e-09  Convergence criterion met
 Total energy in the final basis set =     -269.5744471120
    9    -269.5744495923      6.95e-09  Convergence criterion met
 Total energy in the final basis set =     -269.5744495923
    8    -269.5744499917      8.26e-09  Convergence criterion met
 Total energy in the final basis set =     -269.5744499917
    9    -269.5744509991      5.98e-09  Convergence criterion met
 Total energy in the final basis set =     -269.5744509991
    9    -269.5744512596      2.74e-09  Convergence criterion met
 Total energy in the final basis set =     -269.5744512596
 Final energy is   -269.574451259642
 **  OPTIMIZATION CONVERGED  **
 Total job time:  446.19s(wall), 6445.98s(cpu)
        *  Thank you very much for using Q-Chem.  Have a nice day.  *
 Q-Chem 5.1, Q-Chem, Inc., Pleasanton, CA (2018)
 Q-Chem 5.1.0 for Intel X86 EM64T Linux

User input:
--------------------------------------------------------------

$molecule
read
$end

$rem
JOBTYPE                   FREQ
METHOD                    wB97X-D3
BASIS                     def2-TZVP
UNRESTRICTED              TRUE
SCF_GUESS                 READ
SCF_ALGORITHM             DIIS
MAX_SCF_CYCLES            100
SCF_CONVERGENCE           8
SYM_IGNORE                TRUE
SYMMETRY                  FALSE
WAVEFUNCTION_ANALYSIS     FALSE
$end
--------------------------------------------------------------

             Standard Nuclear Orientation (Angstroms)
    I     Atom           X                Y                Z
 ----------------------------------------------------------------
    1      C       1.6150355202     0.6327611172     0.3150038066
    2      O       0.2767774993     0.2770480969     0.6251162833
    3      C      -0.0980753927    -0.9680570820     0.2402080143
    4      C      -1.3618385252    -1.3610612028     0.2538693716
    5      O      -1.1133166357     1.6765597163    -1.5711067376
    6      H       1.7986855217     1.5963718247     0.7845872719
    7      H       2.3163837248    -0.1040603537     0.7161368665
    8      H       1.7509263054     0.7267945953    -0.7658665694
    9      H      -1.4692002723     0.8648593053    -1.9366338352
   10      H       0.7132593343    -1.6239549964    -0.0676540533
   11      H      -1.6102311133    -2.3720602074    -0.0331267055
   12      H      -2.1567277257    -0.6979235550     0.5709810610
   13      H      -0.8226462407     1.4266697418    -0.6871767743
 ----------------------------------------------------------------

    2    -269.5744512597      2.16e-10  Convergence criterion met
 Total energy in the final basis set =     -269.5744512597
 Frequency:        54.44                  63.20                  84.78
 Force Cnst:      0.0071                 0.0045                 0.0083
 Red. Mass:       4.0784                 1.9265                 1.9485
 IR Intens:       12.193                  8.242                  1.395
 Frequency:       144.84                 189.49                 212.18
 Force Cnst:      0.0215                 0.0498                 0.0293
 Red. Mass:       1.7368                 2.3563                 1.1043
 IR Intens:        0.369                  5.324                 65.035
 Frequency:       258.02                 328.35                 474.21
 Force Cnst:      0.0429                 0.1460                 0.1399
 Red. Mass:       1.0930                 2.2990                 1.0560
 IR Intens:       85.750                  8.310                131.700
 Frequency:       535.57                 726.02                 889.47
 Force Cnst:      0.4507                 0.4520                 0.6468
 Red. Mass:       2.6671                 1.4554                 1.3875
 IR Intens:        2.947                  4.493                 69.537
 Frequency:       900.80                 999.06                1124.17
 Force Cnst:      0.9993                 0.6739                 1.6386
 Red. Mass:       2.0902                 1.1460                 2.2007
 IR Intens:       11.516                 22.151                 22.295
 Frequency:      1175.06                1186.37                1278.27
 Force Cnst:      1.8978                 1.0615                 2.3658
 Red. Mass:       2.3328                 1.2800                 2.4575
 IR Intens:      137.341                  1.134                177.031
 Frequency:      1351.76                1435.23                1487.77
 Force Cnst:      1.2567                 1.4349                 1.5283
 Red. Mass:       1.1673                 1.1823                 1.1719
 IR Intens:        7.611                  9.677                  0.847
 Frequency:      1497.22                1507.83                1655.04
 Force Cnst:      1.3846                 1.4016                 1.7492
 Red. Mass:       1.0484                 1.0464                 1.0839
 IR Intens:       13.937                 12.711                118.705
 Frequency:      1742.47                3044.48                3117.53
 Force Cnst:      8.3347                 5.6458                 6.3395
 Red. Mass:       4.6592                 1.0338                 1.1071
 IR Intens:      167.316                 49.234                 28.390
 Frequency:      3162.55                3176.87                3192.46
 Force Cnst:      6.3945                 6.5501                 6.4233
 Red. Mass:       1.0851                 1.1015                 1.0697
 IR Intens:        9.035                 14.721                  0.487
 Frequency:      3290.15                3817.10                3935.97
 Force Cnst:      7.1252                 9.0157                 9.8254
 Red. Mass:       1.1172                 1.0502                 1.0765
 IR Intens:        2.311                102.024                 57.534

 STANDARD THERMODYNAMIC QUANTITIES AT   298.15 K  AND     1.00 ATM

   This Molecule has  0 Imaginary Frequencies
   Zero point vibrational energy:       68.675 kcal/mol

   Atom    1 Element C  Has Mass   12.00000
   Atom    2 Element O  Has Mass   15.99491
   Atom    3 Element C  Has Mass   12.00000
   Atom    4 Element C  Has Mass   12.00000
   Atom    5 Element O  Has Mass   15.99491
   Atom    6 Element H  Has Mass    1.00783
   Atom    7 Element H  Has Mass    1.00783
   Atom    8 Element H  Has Mass    1.00783
   Atom    9 Element H  Has Mass    1.00783
   Atom   10 Element H  Has Mass    1.00783
   Atom   11 Element H  Has Mass    1.00783
   Atom   12 Element H  Has Mass    1.00783
   Atom   13 Element H  Has Mass    1.00783
   Molecular Mass:    76.052460 amu
   Principal axes and moments of inertia in amu*Bohr^2:
                             1           2           3
    Eigenvalues --      424.56157   491.96507   850.05677
          X              -0.32961     0.85503    -0.40035
          Y               0.72903     0.49994     0.46752
          Z              -0.59990     0.13776     0.78813
   Rotational Symmetry Number is   1
   The Molecule is an Asymmetric Top
   Translational Enthalpy:        0.889 kcal/mol
   Rotational Enthalpy:           0.889 kcal/mol
   Vibrational Enthalpy:         72.332 kcal/mol
   gas constant (RT):             0.592 kcal/mol
   Translational Entropy:        38.902  cal/mol.K
   Rotational Entropy:           26.676  cal/mol.K
   Vibrational Entropy:          24.936  cal/mol.K

   Total Enthalpy:               74.702 kcal/mol
   Total Entropy:                90.514  cal/mol.K

 Total job time:  1248.50s(wall), 4429.95s(cpu)
        *  Thank you very much for using Q-Chem.  Have a nice day.  *
