 Q-Chem 5.1, Q-Chem, Inc., Pleasanton, CA (2018)
 Q-Chem 5.1.0 for Intel X86 EM64T Linux

User input:
--------------------------------------------------------------
$molecule
0 1
C   1.7783118842   0.6254035730   0.4521053315
O   0.3660887450   0.5085400684   0.4394919205
C  -0.0881741105  -0.6259719173  -0.2972206008
C  -1.6045485055  -0.5056187055  -0.3804669200
O  -1.9902499032   0.6999386068  -1.0263890609
H   2.0205484287   1.5254134253   1.0303573690
H   2.2554260162  -0.2489967785   0.9312920109
H   2.1893582582   0.7284284658  -0.5690461844
H   0.3470996332  -0.6196942731  -1.3138987534
H   0.2106174140  -1.5666963435   0.2036305978
H  -2.0086780123  -1.3355034632  -0.9758202434
H  -2.0261263760  -0.5778735930   0.6401599883
H  -1.4496734720   1.3926309349  -0.5980713856
$end

$rem
JOBTYPE                   OPT
METHOD                    wB97X-D3
BASIS                     def2-TZVP
UNRESTRICTED              TRUE
SCF_ALGORITHM             DIIS
MAX_SCF_CYCLES            100
SCF_CONVERGENCE           8
SYM_IGNORE                TRUE
SYMMETRY                  FALSE
GEOM_OPT_MAX_CYCLES       100
GEOM_OPT_TOL_GRADIENT     100
GEOM_OPT_TOL_DISPLACEMENT 400
GEOM_OPT_TOL_ENERGY       33
WAVEFUNCTION_ANALYSIS     FALSE
$end

--------------------------------------------------------------

   12    -269.5886136501      6.62e-09  Convergence criterion met
 Total energy in the final basis set =     -269.5886136501
   11    -269.5897373611      2.17e-09  Convergence criterion met
 Total energy in the final basis set =     -269.5897373611
   10    -269.5898021438      2.24e-09  Convergence criterion met
 Total energy in the final basis set =     -269.5898021438
    9    -269.5898184888      8.73e-09  Convergence criterion met
 Total energy in the final basis set =     -269.5898184888
    8    -269.5898212841      8.00e-09  Convergence criterion met
 Total energy in the final basis set =     -269.5898212841
    8    -269.5898220864      6.89e-09  Convergence criterion met
 Total energy in the final basis set =     -269.5898220864
    7    -269.5898221815      4.87e-09  Convergence criterion met
 Total energy in the final basis set =     -269.5898221815
 Final energy is   -269.589822181474
 **  OPTIMIZATION CONVERGED  **
 Total job time:  225.46s(wall), 1660.22s(cpu)
        *  Thank you very much for using Q-Chem.  Have a nice day.  *
 Q-Chem 5.1, Q-Chem, Inc., Pleasanton, CA (2018)
 Q-Chem 5.1.0 for Intel X86 EM64T Linux

User input:
--------------------------------------------------------------

$molecule
read
$end

$rem
JOBTYPE                   FREQ
METHOD                    wB97X-D3
BASIS                     def2-TZVP
UNRESTRICTED              TRUE
SCF_GUESS                 READ
SCF_ALGORITHM             DIIS
MAX_SCF_CYCLES            100
SCF_CONVERGENCE           8
SYM_IGNORE                TRUE
SYMMETRY                  FALSE
WAVEFUNCTION_ANALYSIS     FALSE
$end
--------------------------------------------------------------

             Standard Nuclear Orientation (Angstroms)
    I     Atom           X                Y                Z
 ----------------------------------------------------------------
    1      C       1.7821240987     0.6074203244     0.4608083414
    2      O       0.3824796922     0.5147445117     0.4230722790
    3      C      -0.0799375945    -0.5980186523    -0.3071575166
    4      C      -1.5861143680    -0.5019663749    -0.3745862488
    5      O      -2.0047511177     0.6648200772    -1.0445042884
    6      H       2.0386857595     1.4887282273     1.0470417394
    7      H       2.2278373364    -0.2768803951     0.9340970462
    8      H       2.2039060397     0.7118543220    -0.5470957855
    9      H       0.3424056219    -0.5850841524    -1.3220630086
   10      H       0.2236201381    -1.5353511901     0.1816312344
   11      H      -1.9837226272    -1.3529805031    -0.9305764699
   12      H      -1.9954307396    -0.5397621124     0.6434043299
   13      H      -1.5511022393     1.4024759178    -0.6279475830
 ----------------------------------------------------------------

    2    -269.5898221884      1.99e-09  Convergence criterion met
 Total energy in the final basis set =     -269.5898221884
 Frequency:        98.66                 142.50                 230.06
 Force Cnst:      0.0178                 0.0283                 0.0408
 Red. Mass:       3.1064                 2.3647                 1.3068
 IR Intens:        0.964                  7.904                  4.293
 Frequency:       278.67                 371.46                 417.76
 Force Cnst:      0.0873                 0.1818                 0.1304
 Red. Mass:       1.9078                 2.2356                 1.2679
 IR Intens:        3.135                 14.316                123.359
 Frequency:       554.29                 856.26                 920.21
 Force Cnst:      0.4446                 0.7826                 1.0475
 Red. Mass:       2.4562                 1.8116                 2.0995
 IR Intens:        7.547                 19.422                 11.759
 Frequency:      1049.44                1108.37                1140.89
 Force Cnst:      1.5798                 1.6497                 1.7772
 Red. Mass:       2.4346                 2.2792                 2.3174
 IR Intens:       16.989                 99.345                 29.141
 Frequency:      1189.51                1193.52                1218.47
 Force Cnst:      1.5559                 1.1622                 1.8227
 Red. Mass:       1.8663                 1.3848                 2.0837
 IR Intens:       51.518                  9.417                 99.837
 Frequency:      1266.97                1279.44                1384.04
 Force Cnst:      1.2911                 1.2563                 1.3819
 Red. Mass:       1.3651                 1.3026                 1.2245
 IR Intens:       17.470                 27.327                  2.263
 Frequency:      1407.61                1449.27                1484.33
 Force Cnst:      1.4608                 1.8129                 1.5036
 Red. Mass:       1.2514                 1.4650                 1.1583
 IR Intens:       32.462                 32.027                  2.514
 Frequency:      1493.81                1503.63                1506.50
 Force Cnst:      1.3770                 1.4466                 1.4521
 Red. Mass:       1.0473                 1.0860                 1.0859
 IR Intens:        9.328                  8.984                  5.972
 Frequency:      1523.86                2990.40                3005.70
 Force Cnst:      1.4827                 5.5542                 5.5257
 Red. Mass:       1.0837                 1.0542                 1.0381
 IR Intens:        4.815                 35.091                 69.560
 Frequency:      3018.34                3038.24                3058.43
 Force Cnst:      5.7906                 5.9606                 6.0884
 Red. Mass:       1.0788                 1.0960                 1.1047
 IR Intens:        5.942                111.550                 39.247
 Frequency:      3115.13                3153.91                3861.33
 Force Cnst:      6.2656                 6.4350                 9.3610
 Red. Mass:       1.0959                 1.0980                 1.0656
 IR Intens:       29.824                 24.863                 39.467

 STANDARD THERMODYNAMIC QUANTITIES AT   298.15 K  AND     1.00 ATM

   This Molecule has  0 Imaginary Frequencies
   Zero point vibrational energy:       71.923 kcal/mol

   Atom    1 Element C  Has Mass   12.00000
   Atom    2 Element O  Has Mass   15.99491
   Atom    3 Element C  Has Mass   12.00000
   Atom    4 Element C  Has Mass   12.00000
   Atom    5 Element O  Has Mass   15.99491
   Atom    6 Element H  Has Mass    1.00783
   Atom    7 Element H  Has Mass    1.00783
   Atom    8 Element H  Has Mass    1.00783
   Atom    9 Element H  Has Mass    1.00783
   Atom   10 Element H  Has Mass    1.00783
   Atom   11 Element H  Has Mass    1.00783
   Atom   12 Element H  Has Mass    1.00783
   Atom   13 Element H  Has Mass    1.00783
   Molecular Mass:    76.052460 amu
   Principal axes and moments of inertia in amu*Bohr^2:
                             1           2           3
    Eigenvalues --      137.54516   654.06082   726.56413
          X               0.93265    -0.07050    -0.35382
          Y               0.09851     0.99322     0.06176
          Z               0.34706    -0.09245     0.93327
   Rotational Symmetry Number is   1
   The Molecule is an Asymmetric Top
   Translational Enthalpy:        0.889 kcal/mol
   Rotational Enthalpy:           0.889 kcal/mol
   Vibrational Enthalpy:         74.109 kcal/mol
   gas constant (RT):             0.592 kcal/mol
   Translational Entropy:        38.902  cal/mol.K
   Rotational Entropy:           25.683  cal/mol.K
   Vibrational Entropy:          12.959  cal/mol.K

   Total Enthalpy:               76.479 kcal/mol
   Total Entropy:                77.544  cal/mol.K

 Total job time:  1893.04s(wall), 3792.05s(cpu)
        *  Thank you very much for using Q-Chem.  Have a nice day.  *
