 Q-Chem 5.1, Q-Chem, Inc., Pleasanton, CA (2018)
 Q-Chem 5.1.0 for Intel X86 EM64T Linux

User input:
--------------------------------------------------------------
$molecule
0 1
C   1.8062364793   0.5999609486   0.5916814464
O   0.5384687270   0.1097611373   0.9998078958
C  -0.0541285838  -0.6589362931  -0.0166915338
C  -1.4765515916  -0.6953640167  -0.0699333854
O  -1.5665679404   0.3514781520  -1.6771172351
H   2.2366602637   1.1306622144   1.4496275036
H   2.4860983232  -0.2223887745   0.2999437419
H   1.7185969552   1.2882708721  -0.2694248698
H  -0.3937535518   0.0668654971  -1.2001658492
H   0.4775111097  -1.5885976225  -0.2692690102
H  -1.9727667490  -1.5515518899  -0.5249936917
H  -2.0857379941  -0.0890555591   0.5990437060
H  -1.7752624472   1.2781933344  -1.4228957184
$end

$rem
JOBTYPE                   FREQ
METHOD                    wB97X-D3
BASIS                     def2-TZVP
UNRESTRICTED              TRUE
SCF_ALGORITHM             DIIS
MAX_SCF_CYCLES            100
SCF_CONVERGENCE           8
SYM_IGNORE                TRUE
SYMMETRY                  FALSE
WAVEFUNCTION_ANALYSIS     FALSE
$end

--------------------------------------------------------------

   15    -269.4641364258      2.70e-09  Convergence criterion met
 Total energy in the final basis set =     -269.4641364258
 Frequency:     -2131.23                 146.37                 223.47
 Force Cnst:      3.0350                 0.0414                 0.0968
 Red. Mass:       1.1341                 3.2820                 3.2892
 IR Intens:      483.448                  0.770                 10.651
 Frequency:       319.64                 357.10                 401.03
 Force Cnst:      0.0758                 0.1647                 0.3403
 Red. Mass:       1.2598                 2.1915                 3.5913
 IR Intens:       13.427                 84.986                244.386
 Frequency:       489.05                 545.89                 687.89
 Force Cnst:      0.3864                 0.7558                 0.3253
 Red. Mass:       2.7423                 4.3046                 1.1669
 IR Intens:        3.761                 86.077                 78.523
 Frequency:       823.22                 859.39                 883.16
 Force Cnst:      0.4791                 0.5382                 0.9341
 Red. Mass:       1.1999                 1.2368                 2.0327
 IR Intens:        9.641                100.223                 80.101
 Frequency:      1018.41                1091.32                1131.93
 Force Cnst:      0.6886                 2.0931                 1.1070
 Red. Mass:       1.1269                 2.9828                 1.4664
 IR Intens:       17.516                121.083                 15.504
 Frequency:      1150.89                1192.84                1245.78
 Force Cnst:      1.2215                 1.0744                 1.3718
 Red. Mass:       1.5652                 1.2817                 1.5003
 IR Intens:       71.680                  2.203                 32.101
 Frequency:      1262.48                1391.98                1452.22
 Force Cnst:      1.6912                 1.5718                 1.3377
 Red. Mass:       1.8009                 1.3768                 1.0766
 IR Intens:       31.131                 12.383                 10.461
 Frequency:      1490.47                1496.67                1513.92
 Force Cnst:      1.5070                 1.3946                 1.4437
 Red. Mass:       1.1514                 1.0567                 1.0691
 IR Intens:        0.565                  7.319                  9.180
 Frequency:      1533.41                1563.77                2931.56
 Force Cnst:      2.1001                 1.5625                 5.2467
 Red. Mass:       1.5159                 1.0845                 1.0362
 IR Intens:        8.154                 25.054                 58.123
 Frequency:      2979.78                3024.79                3079.33
 Force Cnst:      5.7786                 5.8547                 6.1346
 Red. Mass:       1.1046                 1.0861                 1.0980
 IR Intens:       56.553                 20.808                 31.423
 Frequency:      3119.86                3216.75                3594.05
 Force Cnst:      6.0654                 6.8294                 8.1177
 Red. Mass:       1.0576                 1.1202                 1.0666
 IR Intens:        4.241                  0.691                 16.868
 Total job time:  1276.63s(wall), 4765.00s(cpu)
        *  Thank you very much for using Q-Chem.  Have a nice day.  *
 Q-Chem 5.1, Q-Chem, Inc., Pleasanton, CA (2018)
 Q-Chem 5.1.0 for Intel X86 EM64T Linux

User input:
--------------------------------------------------------------

$molecule
read
$end

$rem
JOBTYPE                   TS
METHOD                    wB97X-D3
BASIS                     def2-TZVP
UNRESTRICTED              TRUE
SCF_GUESS                 READ
GEOM_OPT_HESSIAN          READ
SCF_ALGORITHM             DIIS
MAX_SCF_CYCLES            100
SCF_CONVERGENCE           8
SYM_IGNORE                TRUE
SYMMETRY                  FALSE
GEOM_OPT_MAX_CYCLES       100
GEOM_OPT_TOL_GRADIENT     100
GEOM_OPT_TOL_DISPLACEMENT 400
GEOM_OPT_TOL_ENERGY       33
WAVEFUNCTION_ANALYSIS     FALSE
$end

--------------------------------------------------------------

    2    -269.4641364255      3.01e-10  Convergence criterion met
 Total energy in the final basis set =     -269.4641364255
   11    -269.4663979542      6.81e-09  Convergence criterion met
 Total energy in the final basis set =     -269.4663979542
   10    -269.4664738896      4.12e-09  Convergence criterion met
 Total energy in the final basis set =     -269.4664738896
    9    -269.4664805792      6.58e-09  Convergence criterion met
 Total energy in the final basis set =     -269.4664805792
   10    -269.4664854788      3.24e-09  Convergence criterion met
 Total energy in the final basis set =     -269.4664854788
    8    -269.4664859150      4.82e-09  Convergence criterion met
 Total energy in the final basis set =     -269.4664859150
    9    -269.4664865174      5.74e-09  Convergence criterion met
 Total energy in the final basis set =     -269.4664865174
    6    -269.4664864990      4.85e-09  Convergence criterion met
 Total energy in the final basis set =     -269.4664864990
 Final energy is   -269.466486498956
 **  OPTIMIZATION CONVERGED  **
        *  Thank you very much for using Q-Chem.  Have a nice day.  *
 Q-Chem 5.1, Q-Chem, Inc., Pleasanton, CA (2018)
 Q-Chem 5.1.0 for Intel X86 EM64T Linux

User input:
--------------------------------------------------------------

$molecule
read
$end

$rem
JOBTYPE                   FREQ
METHOD                    wB97X-D3
BASIS                     def2-TZVP
UNRESTRICTED              TRUE
SCF_GUESS                 READ
SCF_ALGORITHM             DIIS
MAX_SCF_CYCLES            100
SCF_CONVERGENCE           8
SYM_IGNORE                TRUE
SYMMETRY                  FALSE
WAVEFUNCTION_ANALYSIS     FALSE
$end
--------------------------------------------------------------

             Standard Nuclear Orientation (Angstroms)
    I     Atom           X                Y                Z
 ----------------------------------------------------------------
    1      C       1.7909423169     0.5969912369     0.5855516539
    2      O       0.5307721199     0.0966848397     0.9509297940
    3      C      -0.0459646622    -0.6950348056    -0.0457206515
    4      C      -1.4517981864    -0.6923458588    -0.0935148812
    5      O      -1.5587055194     0.3914114488    -1.6083022365
    6      H       2.1620272957     1.1878549188     1.4223555670
    7      H       2.5022212176    -0.2135157871     0.3814732998
    8      H       1.7263819363     1.2295850141    -0.3090110600
    9      H      -0.4253983227     0.0571120637    -1.2035915573
   10      H       0.4812115015    -1.6245978746    -0.2604717045
   11      H      -1.9701994469    -1.5310877423    -0.5363168924
   12      H      -2.0237317795    -0.0912492786     0.6038382362
   13      H      -1.7789554708     1.3074898251    -1.3976065675
 ----------------------------------------------------------------

    2    -269.4664864992      1.15e-09  Convergence criterion met
 Total energy in the final basis set =     -269.4664864992
 Frequency:     -2081.79                  86.26                 148.87
 Force Cnst:      2.9179                 0.0122                 0.0235
 Red. Mass:       1.1428                 2.7785                 1.8015
 IR Intens:      531.790                  2.803                  3.954
 Frequency:       219.82                 309.12                 399.44
 Force Cnst:      0.0433                 0.1084                 0.2131
 Red. Mass:       1.5213                 1.9252                 2.2670
 IR Intens:        9.417                  8.891                 70.630
 Frequency:       459.68                 516.24                 590.60
 Force Cnst:      0.3551                 0.3428                 0.5466
 Red. Mass:       2.8519                 2.1833                 2.6596
 IR Intens:      264.631                233.137                  9.912
 Frequency:       729.94                 807.74                 878.10
 Force Cnst:      0.3542                 0.4998                 1.0642
 Red. Mass:       1.1282                 1.3001                 2.3425
 IR Intens:       42.540                 79.799                 53.002
 Frequency:      1004.95                1108.87                1131.47
 Force Cnst:      0.6715                 1.3296                 0.9543
 Red. Mass:       1.1286                 1.8354                 1.2652
 IR Intens:       14.532                 34.321                 11.784
 Frequency:      1171.95                1188.73                1245.12
 Force Cnst:      2.2566                 1.0825                 1.4431
 Red. Mass:       2.7886                 1.3002                 1.5799
 IR Intens:      152.273                  2.574                 47.304
 Frequency:      1274.16                1387.66                1439.40
 Force Cnst:      1.5495                 1.5660                 1.3200
 Red. Mass:       1.6199                 1.3803                 1.0814
 IR Intens:       34.026                 17.108                  6.434
 Frequency:      1484.37                1488.36                1512.95
 Force Cnst:      1.4601                 1.4095                 1.4378
 Red. Mass:       1.1247                 1.0800                 1.0661
 IR Intens:        1.274                  6.606                 11.226
 Frequency:      1543.40                1618.55                3002.47
 Force Cnst:      2.6142                 1.6824                 5.5007
 Red. Mass:       1.8627                 1.0900                 1.0356
 IR Intens:       11.211                 28.275                 65.606
 Frequency:      3055.32                3122.24                3144.04
 Force Cnst:      6.0739                 6.2393                 6.3977
 Red. Mass:       1.1043                 1.0863                 1.0985
 IR Intens:       59.120                 20.580                 31.357
 Frequency:      3174.38                3278.39                3814.64
 Force Cnst:      6.2945                 7.0789                 9.1451
 Red. Mass:       1.0602                 1.1179                 1.0667
 IR Intens:        6.280                  1.063                 20.782

 STANDARD THERMODYNAMIC QUANTITIES AT   298.15 K  AND     1.00 ATM

   This Molecule has  1 Imaginary Frequencies
   Zero point vibrational energy:       66.242 kcal/mol

   Atom    1 Element C  Has Mass   12.00000
   Atom    2 Element O  Has Mass   15.99491
   Atom    3 Element C  Has Mass   12.00000
   Atom    4 Element C  Has Mass   12.00000
   Atom    5 Element O  Has Mass   15.99491
   Atom    6 Element H  Has Mass    1.00783
   Atom    7 Element H  Has Mass    1.00783
   Atom    8 Element H  Has Mass    1.00783
   Atom    9 Element H  Has Mass    1.00783
   Atom   10 Element H  Has Mass    1.00783
   Atom   11 Element H  Has Mass    1.00783
   Atom   12 Element H  Has Mass    1.00783
   Atom   13 Element H  Has Mass    1.00783
   Molecular Mass:    76.052460 amu
   Principal axes and moments of inertia in amu*Bohr^2:
                             1           2           3
    Eigenvalues --      178.08070   667.04157   761.78790
          X               0.84644     0.28111    -0.45224
          Y               0.10730     0.74183     0.66195
          Z               0.52157    -0.60883     0.59774
   Rotational Symmetry Number is   1
   The Molecule is an Asymmetric Top
   Translational Enthalpy:        0.889 kcal/mol
   Rotational Enthalpy:           0.889 kcal/mol
   Vibrational Enthalpy:         68.568 kcal/mol
   gas constant (RT):             0.592 kcal/mol
   Translational Entropy:        38.902  cal/mol.K
   Rotational Entropy:           26.006  cal/mol.K
   Vibrational Entropy:          13.648  cal/mol.K

   Total Enthalpy:               70.938 kcal/mol
   Total Entropy:                78.556  cal/mol.K

 Total job time:  1348.44s(wall), 4676.90s(cpu)
        *  Thank you very much for using Q-Chem.  Have a nice day.  *
